version 3
run General-0-20241129-14:47:49-7524
attr configname General
attr datetime 20241129-14:47:49
attr datetimef 20241129-144749
attr experiment General
attr inifile D:/jobSimQt/project/Parameters.ini
attr iterationvars ""
attr iterationvarsd ""
attr iterationvarsf ""
attr measurement ""
attr network TargetNetwork
attr processid 7524
attr repetition 0
attr replication #0
attr resultdir results
attr runnumber 0
attr seedset 0
config network TargetNetwork
config sim-time-limit 1.5s
config **.statistic-recording false
config *.*.ethernet.typename EthernetLayer
config *.*.eth[*].typename LayeredEthernetInterface
config *.*.eth[*].bitrate 100Mbps
config **.eth[*].queue.typename DropTailQueue
config **.eth[*].queue.packetCapacity 20
config **.forwarding false
config **.arp.retryTimeout 1s
config **.arp.retryCount 3
config **.arp.cacheTimeout 100s
config **.tcp.tcpAlgorithmClass "\"TcpReno\""
config **.tcp.typename Tcp
config **.tcp.advertisedWindow 65535
config **.tcp.delayedAcksEnabled false
config **.tcp.nagleEnabled true
config **.tcp.limitedTransmitEnabled false
config **.tcp.increasedIWEnabled false
config **.tcp.sackSupport false
config **.tcp.windowScalingSupport false
config **.tcp.timestampSupport false
config **.tcp.mss 1452
config *.configurator.config "xml(\"<config>\\n\" + \"<interface hosts='udp_tcp' address='192.168.0.1' netmask='255.255.255.x'/>\\n\" + \"<interface hosts='udp_tcp2' address='192.168.0.2' netmask='255.255.255.x'/>\\n\" + \"</config>\")"
config *.udp_tcp.numApps 1
config *.udp_tcp.app[0].typename UdpApp615
config *.udp_tcp.app[0].source.packetLength 1000B
config *.udp_tcp.app[0].source.productionInterval exponential(100us)
config *.udp_tcp.app[0].io.destAddress "\"udp_tcp2\""
config *.udp_tcp.app[0].io.destPort 1000
config *.udp_tcp.app[0].sink.typename ""
config *.udp_tcp2.numApps 1
config *.udp_tcp2.app[0].typename UdpApp615
config *.udp_tcp2.app[0].source.typename ""
config *.udp_tcp2.app[0].io.destPort -1
config *.udp_tcp2.app[0].io.localPort 1000
config *.udp_tcp2.app[0].sink.flowName "\"default\""
config *.switch.eth[*].bitrate 100Mbps

vector 0 TargetNetwork.udp_tcp.eth[0].macLayer.queue 615.udp_tcp.eth[0].macLayer.queue ETV
vector 1 TargetNetwork.switch.eth[1].macLayer.queue 615.switch.eth[1].macLayer.queue ETV
vector 2 TargetNetwork.udp_tcp2.app[0].sink default ETV
vector 3 TargetNetwork.udp_tcp2.app[0].sink default_loss ETV
0	11	0	0.01
0	12	0	0
0	17	0.00007958745	0.01
0	25	0.00008528	0
0	37	0.000169443489	0.01
0	47	0.00017056	0
0	67	0.000295036565	0.01
0	68	0.000295036565	0
0	96	0.000480996986	0.01
0	97	0.000480996986	0
0	109	0.000573319299	0.01
0	110	0.000573319299	0
0	138	0.000768473833	0.01
0	139	0.000768473833	0
0	144	0.000847193947	0.01
0	152	0.000853753833	0
0	180	0.001035090352	0.01
0	181	0.001035090352	0
0	186	0.001090195201	0.01
0	194	0.001120370352	0
0	199	0.001187895844	0.01
0	215	0.001205650352	0
0	235	0.001291711774	0.01
0	236	0.001291711774	0
0	241	0.00134022459	0.01
0	257	0.001376991774	0
0	262	0.00139777651	0.01
0	268	0.001433092424	0.02
0	284	0.001462271774	0.01
0	299	0.001547551774	0
0	319	0.001655444866	0.01
0	320	0.001655444866	0
0	325	0.001661283333	0.01
0	341	0.001740724866	0
0	369	0.001992774561	0.01
0	370	0.001992774561	0
0	375	0.002024610175	0.01
0	381	0.002072970385	0.02
0	389	0.002078054561	0.01
0	394	0.00213791502	0.02
0	410	0.002163334561	0.01
0	425	0.002248614561	0
0	430	0.002294804632	0.01
0	446	0.002333894561	0
0	466	0.002462025752	0.01
0	467	0.002462025752	0
0	480	0.002537293163	0.01
0	488	0.002547305752	0
0	493	0.00260268142	0.01
0	509	0.002632585752	0
0	514	0.002686624705	0.01
0	530	0.002717865752	0
0	535	0.002736511906	0.01
0	551	0.002803145752	0
0	579	0.002996337315	0.01
0	580	0.002996337315	0
0	600	0.003177174241	0.01
0	601	0.003177174241	0
0	606	0.003184542777	0.01
0	612	0.003225700577	0.02
0	618	0.00323481668	0.03
0	626	0.003262454241	0.02
0	631	0.003339277931	0.03
0	637	0.00334132049	0.04
0	653	0.003347734241	0.03
0	658	0.003387245304	0.04
0	674	0.003433014241	0.03
0	689	0.003518294241	0.02
0	694	0.00356599407	0.03
0	710	0.003603574241	0.02
0	725	0.003688854241	0.01
0	740	0.003774134241	0
0	760	0.003881011063	0.01
0	761	0.003881011063	0
0	781	0.004031589489	0.01
0	782	0.004031589489	0
0	787	0.004046712574	0.01
0	803	0.004116869489	0
0	823	0.004250744	0.01
0	824	0.004250744	0
0	852	0.004454833222	0.01
0	853	0.004454833222	0
0	873	0.004839355409	0.01
0	874	0.004839355409	0
0	879	0.004903526326	0.01
0	887	0.004924635409	0
0	907	0.005064050282	0.01
0	908	0.005064050282	0
0	928	0.005225450489	0.01
0	929	0.005225450489	0
0	942	0.005287343435	0.01
0	950	0.005310730489	0
0	955	0.005360839877	0.01
0	971	0.005396010489	0
0	991	0.005512493474	0.01
0	992	0.005512493474	0
0	1012	0.005626087368	0.01
0	1013	0.005626087368	0
0	1018	0.005638674809	0.01
0	1034	0.005711367368	0
0	1039	0.005766197579	0.01
0	1055	0.005796647368	0
0	1060	0.005868340766	0.01
0	1076	0.005881927368	0
0	1081	0.005955572886	0.01
0	1097	0.005967207368	0
0	1102	0.005971045854	0.01
0	1108	0.00604812932	0.02
0	1124	0.006052487368	0.01
0	1139	0.006137767368	0
0	1167	0.006337571368	0.01
0	1168	0.006337571368	0
0	1180	0.006479707836	0.01
0	1181	0.006479707836	0
0	1194	0.006553490565	0.01
0	1205	0.006564685181	0.02
0	1208	0.006564987836	0.01
0	1213	0.006618241753	0.02
0	1229	0.006650267836	0.01
0	1234	0.006682411223	0.02
0	1240	0.006713139258	0.03
0	1252	0.006733759586	0.04
0	1262	0.006735547836	0.03
0	1277	0.006820827836	0.02
0	1282	0.006882585069	0.03
0	1298	0.006906107836	0.02
0	1313	0.006991387836	0.01
0	1318	0.007016114087	0.02
0	1334	0.007076667836	0.01
0	1339	0.007077022329	0.02
0	1345	0.007101427178	0.03
0	1361	0.007161947836	0.02
0	1366	0.007185460649	0.03
0	1372	0.007199988452	0.04
0	1378	0.007201885309	0.05
0	1384	0.00724106239	0.06
0	1400	0.007247227836	0.05
0	1415	0.007332507836	0.04
0	1420	0.007337200484	0.05
0	1426	0.007353414133	0.06
0	1442	0.007417787836	0.05
0	1447	0.007448113801	0.06
0	1453	0.007473257994	0.07
0	1469	0.007503067836	0.06
0	1474	0.007569212792	0.07
0	1490	0.007588347836	0.06
0	1495	0.007618068497	0.07
0	1511	0.007673627836	0.06
0	1526	0.007758907836	0.05
0	1541	0.007844187836	0.04
0	1546	0.007905859999	0.05
0	1562	0.007929467836	0.04
0	1577	0.008014747836	0.03
0	1592	0.008100027836	0.02
0	1597	0.008138751336	0.03
0	1613	0.008185307836	0.02
0	1618	0.008253265231	0.03
0	1634	0.008270587836	0.02
0	1639	0.008313039839	0.03
0	1655	0.008355867836	0.02
0	1660	0.008357591689	0.03
0	1676	0.008441147836	0.02
0	1681	0.008452541147	0.03
0	1687	0.008509994388	0.04
0	1703	0.008526427836	0.03
0	1718	0.008611707836	0.02
0	1733	0.008696987836	0.01
0	1738	0.008742629494	0.02
0	1754	0.008782267836	0.01
0	1759	0.008862240274	0.02
0	1775	0.008867547836	0.01
0	1780	0.008872696397	0.02
0	1786	0.008878907926	0.03
0	1802	0.008952827836	0.02
0	1817	0.009038107836	0.01
0	1832	0.009123387836	0
0	1852	0.009228929294	0.01
0	1853	0.009228929294	0
0	1873	0.009338820541	0.01
0	1874	0.009338820541	0
0	1894	0.009444703954	0.01
0	1895	0.009444703954	0
0	1915	0.009555763699	0.01
0	1916	0.009555763699	0
0	1921	0.009574506306	0.01
0	1927	0.009598126977	0.02
0	1943	0.009641043699	0.01
0	1948	0.00964246738	0.02
0	1954	0.009656270249	0.03
0	1970	0.009726323699	0.02
0	1975	0.009795174518	0.03
0	1991	0.009811603699	0.02
0	1996	0.009833070714	0.03
0	2012	0.009896883699	0.02
0	2017	0.00992667687	0.03
0	2023	0.009971887076	0.04
0	2039	0.009982163699	0.03
0	2044	0.010011198332	0.04
0	2060	0.010067443699	0.03
0	2065	0.010095641111	0.04
0	2071	0.010099559427	0.05
0	2087	0.010152723699	0.04
0	2092	0.010157291858	0.05
0	2108	0.010238003699	0.04
0	2113	0.010257878959	0.05
0	2129	0.010323283699	0.04
0	2144	0.010408563699	0.03
0	2159	0.010493843699	0.02
0	2174	0.010579123699	0.01
0	2189	0.010664403699	0
0	2194	0.010703328644	0.01
0	2210	0.010749683699	0
0	2238	0.011022623308	0.01
0	2239	0.011022623308	0
0	2244	0.011033386819	0.01
0	2252	0.011107903308	0
0	2257	0.01113916946	0.01
0	2263	0.011162599612	0.02
0	2279	0.011193183308	0.01
0	2284	0.011263401537	0.02
0	2300	0.011278463308	0.01
0	2305	0.011280992892	0.02
0	2321	0.011363743308	0.01
0	2336	0.011449023308	0
0	2364	0.011817002927	0.01
0	2365	0.011817002927	0
0	2377	0.011922877199	0.01
0	2378	0.011922877199	0
0	2398	0.012010068784	0.01
0	2399	0.012010068784	0
0	2404	0.012039276837	0.01
0	2418	0.012092783305	0.02
0	2426	0.012095348784	0.01
0	2431	0.012155577463	0.02
0	2447	0.012180628784	0.01
0	2452	0.012219955563	0.02
0	2458	0.012247983264	0.03
0	2474	0.012265908784	0.02
0	2479	0.012345669671	0.03
0	2495	0.012351188784	0.02
0	2500	0.012362982417	0.03
0	2506	0.01240423254	0.04
0	2512	0.012415928081	0.05
0	2528	0.012436468784	0.04
0	2543	0.012521748784	0.03
0	2548	0.012528244911	0.04
0	2564	0.012607028784	0.03
0	2569	0.012635052131	0.04
0	2575	0.012673207715	0.05
0	2581	0.012688078942	0.06
0	2597	0.012692308784	0.05
0	2612	0.012777588784	0.04
0	2617	0.012838742475	0.05
0	2623	0.012860630535	0.06
0	2639	0.012862868784	0.05
0	2654	0.012948148784	0.04
0	2669	0.013033428784	0.03
0	2684	0.013118708784	0.02
0	2689	0.013159349524	0.03
0	2705	0.013203988784	0.02
0	2710	0.01320535092	0.03
0	2726	0.013289268784	0.02
0	2731	0.013313977858	0.03
0	2747	0.013374548784	0.02
0	2762	0.013459828784	0.01
0	2767	0.013486011024	0.02
0	2773	0.013487377482	0.03
0	2779	0.01349759197	0.04
0	2795	0.013545108784	0.03
0	2800	0.013595102163	0.04
0	2816	0.013630388784	0.03
0	2831	0.013715668784	0.02
0	2836	0.013777084055	0.03
0	2852	0.013800948784	0.02
0	2867	0.013886228784	0.01
0	2872	0.013889065492	0.02
0	2878	0.01389916897	0.03
0	2894	0.013971508784	0.02
0	2909	0.014056788784	0.01
0	2924	0.014142068784	0
0	2944	0.014256527807	0.01
0	2945	0.014256527807	0
0	2973	0.014631430953	0.01
0	2974	0.014631430953	0
0	2994	0.014841963083	0.01
0	2995	0.014841963083	0
0	3000	0.014905196743	0.01
0	3008	0.014927243083	0
0	3013	0.014976455102	0.01
0	3029	0.015012523083	0
0	3057	0.01535264783	0.01
0	3058	0.01535264783	0
0	3063	0.015358380523	0.01
0	3071	0.01543792783	0
0	3076	0.015451228373	0.01
0	3082	0.015511223062	0.02
0	3098	0.01552320783	0.01
0	3113	0.01560848783	0
0	3118	0.015645647589	0.01
0	3124	0.015647666602	0.02
0	3130	0.015651664232	0.03
0	3146	0.01569376783	0.02
0	3151	0.015709952071	0.03
0	3157	0.015743193095	0.04
0	3173	0.01577904783	0.03
0	3188	0.01586432783	0.02
0	3203	0.01594960783	0.01
0	3218	0.01603488783	0
0	3238	0.016132350107	0.01
0	3239	0.016132350107	0
0	3244	0.016145155784	0.01
0	3250	0.01618969773	0.02
0	3266	0.016217630107	0.01
0	3271	0.016224815339	0.02
0	3277	0.016290379967	0.03
0	3293	0.016302910107	0.02
0	3298	0.016303018831	0.03
0	3314	0.016388190107	0.02
0	3319	0.016419706184	0.03
0	3325	0.016457976279	0.04
0	3341	0.016473470107	0.03
0	3356	0.016558750107	0.02
0	3371	0.016644030107	0.01
0	3376	0.016670399999	0.02
0	3382	0.016723888437	0.03
0	3398	0.016729310107	0.02
0	3413	0.016814590107	0.01
0	3428	0.016899870107	0
0	3433	0.016974279615	0.01
0	3439	0.016980909355	0.02
0	3455	0.016985150107	0.01
0	3460	0.0170053489	0.02
0	3476	0.017070430107	0.01
0	3481	0.017123267853	0.02
0	3497	0.017155710107	0.01
0	3502	0.017206552205	0.02
0	3518	0.017240990107	0.01
0	3523	0.017290161958	0.02
0	3539	0.017326270107	0.01
0	3554	0.017411550107	0
0	3559	0.01749048601	0.01
0	3575	0.017496830107	0
0	3580	0.017521327494	0.01
0	3596	0.017582110107	0
0	3601	0.017592452288	0.01
0	3620	0.017666528183	0.02
0	3623	0.017667390107	0.01
0	3638	0.017752670107	0
0	3658	0.017915086419	0.01
0	3659	0.017915086419	0
0	3672	0.01792495145	0.01
0	3680	0.018000366419	0
0	3708	0.018178981901	0.01
0	3709	0.018178981901	0
0	3721	0.018264771465	0.01
0	3722	0.018264771465	0
0	3727	0.018273448513	0.01
0	3743	0.018350051465	0
0	3771	0.018538374106	0.01
0	3772	0.018538374106	0
0	3777	0.018570908148	0.01
0	3783	0.018609264169	0.02
0	3789	0.018610204244	0.03
0	3797	0.018623654106	0.02
0	3812	0.018708934106	0.01
0	3817	0.018720288835	0.02
0	3833	0.018794214106	0.01
0	3848	0.018879494106	0
0	3853	0.0189050216	0.01
0	3859	0.018919154671	0.02
0	3875	0.018964774106	0.01
0	3880	0.019023332736	0.02
0	3896	0.019050054106	0.01
0	3911	0.019135334106	0
0	3916	0.019149326117	0.01
0	3932	0.019220614106	0
0	3952	0.019333454364	0.01
0	3953	0.019333454364	0
0	3958	0.019367619781	0.01
0	3972	0.019398371553	0.02
0	3983	0.019418606597	0.03
0	3986	0.019418734364	0.02
0	3991	0.019469326609	0.03
0	4007	0.019504014364	0.02
0	4012	0.019557639513	0.03
0	4028	0.019589294364	0.02
0	4033	0.019638119253	0.03
0	4039	0.019640150499	0.04
0	4045	0.019658175724	0.05
0	4061	0.019674574364	0.04
0	4076	0.019759854364	0.03
0	4081	0.019834749831	0.04
0	4097	0.019845134364	0.03
0	4102	0.019880922921	0.04
0	4108	0.019881393575	0.05
0	4114	0.019897227726	0.06
0	4130	0.019930414364	0.05
0	4135	0.02001049114	0.06
0	4151	0.020015694364	0.05
0	4156	0.020094799443	0.06
0	4172	0.020100974364	0.05
0	4177	0.020126271609	0.06
0	4193	0.020186254364	0.05
0	4198	0.020247922474	0.06
0	4214	0.020271534364	0.05
0	4229	0.020356814364	0.04
0	4234	0.020380798261	0.05
0	4240	0.020414832935	0.06
0	4256	0.020442094364	0.05
0	4271	0.020527374364	0.04
0	4286	0.020612654364	0.03
0	4301	0.020697934364	0.02
0	4306	0.020742347253	0.03
0	4322	0.020783214364	0.02
0	4327	0.020799137668	0.03
0	4333	0.020827739765	0.04
0	4349	0.020868494364	0.03
0	4364	0.020953774364	0.02
0	4369	0.020968842206	0.03
0	4385	0.021039054364	0.02
0	4390	0.021054681503	0.03
0	4396	0.021105115884	0.04
0	4412	0.021124334364	0.03
0	4417	0.021194774971	0.04
0	4433	0.021209614364	0.03
0	4448	0.021294894364	0.02
0	4463	0.021380174364	0.01
0	4468	0.021421148329	0.02
0	4484	0.021465454364	0.01
0	4489	0.02150607041	0.02
0	4505	0.021550734364	0.01
0	4510	0.021607936283	0.02
0	4516	0.021633178282	0.03
0	4532	0.021636014364	0.02
0	4547	0.021721294364	0.01
0	4562	0.021806574364	0
0	4567	0.021855328972	0.01
0	4583	0.021891854364	0
0	4611	0.022160557138	0.01
0	4612	0.022160557138	0
0	4624	0.022274517934	0.01
0	4625	0.022274517934	0
0	4638	0.022333780337	0.01
0	4646	0.022359797934	0
0	4651	0.022393418276	0.01
0	4667	0.022445077934	0
0	4687	0.022580764264	0.01
0	4688	0.022580764264	0
0	4716	0.022965064922	0.01
0	4717	0.022965064922	0
0	4729	0.023085288779	0.01
0	4730	0.023085288779	0
0	4735	0.023097641444	0.01
0	4741	0.023132943457	0.02
0	4757	0.023170568779	0.01
0	4772	0.023255848779	0
0	4777	0.023278625313	0.01
0	4793	0.023341128779	0
0	4813	0.023446717533	0.01
0	4814	0.023446717533	0
0	4819	0.023499789783	0.01
0	4835	0.023531997533	0
0	4840	0.023550291658	0.01
0	4856	0.023617277533	0
0	4861	0.02366281986	0.01
0	4877	0.023702557533	0
0	4905	0.0238757698	0.01
0	4906	0.0238757698	0
0	4911	0.023904510848	0.01
0	4919	0.0239610498	0
0	4924	0.023991564431	0.01
0	4930	0.024029138315	0.02
0	4946	0.0240463298	0.01
0	4961	0.0241316098	0
0	4981	0.02424262136	0.01
0	4982	0.02424262136	0
0	5010	0.024579058405	0.01
0	5011	0.024579058405	0
0	5023	0.024696996698	0.01
0	5024	0.024696996698	0
0	5044	0.024785782839	0.01
0	5045	0.024785782839	0
0	5065	0.024914973766	0.01
0	5066	0.024914973766	0
0	5086	0.025022757254	0.01
0	5087	0.025022757254	0
0	5100	0.0250923372	0.01
0	5108	0.025108037254	0
0	5113	0.025168523977	0.01
0	5129	0.025193317254	0
0	5157	0.025481070813	0.01
0	5158	0.025481070813	0
0	5163	0.025507276537	0.01
0	5171	0.025566350813	0
0	5176	0.025610556238	0.01
0	5192	0.025651630813	0
0	5197	0.025660787318	0.01
0	5203	0.025715926917	0.02
0	5219	0.025736910813	0.01
0	5224	0.025812372274	0.02
0	5240	0.025822190813	0.01
0	5251	0.025905612562	0.02
0	5261	0.025907470813	0.01
0	5266	0.025970023033	0.02
0	5272	0.025971961011	0.03
0	5288	0.025992750813	0.02
0	5293	0.026035473783	0.03
0	5299	0.026071366505	0.04
0	5315	0.026078030813	0.03
0	5330	0.026163310813	0.02
0	5335	0.026197270857	0.03
0	5351	0.026248590813	0.02
0	5356	0.026305202877	0.03
0	5372	0.026333870813	0.02
0	5377	0.02633916935	0.03
0	5383	0.026373429312	0.04
0	5399	0.026419150813	0.03
0	5404	0.026421792881	0.04
0	5420	0.026504430813	0.03
0	5425	0.026518030387	0.04
0	5441	0.026589710813	0.03
0	5446	0.026656328308	0.04
0	5462	0.026674990813	0.03
0	5467	0.026712324415	0.04
0	5483	0.026760270813	0.03
0	5498	0.026845550813	0.02
0	5503	0.026923069175	0.03
0	5519	0.026930830813	0.02
0	5524	0.026937626573	0.03
0	5530	0.026948481283	0.04
0	5536	0.026983903696	0.05
0	5542	0.026993595971	0.06
0	5558	0.027016110813	0.05
0	5563	0.027077984818	0.06
0	5579	0.027101390813	0.05
0	5584	0.027121687619	0.06
0	5600	0.027186670813	0.05
0	5605	0.027211060527	0.06
0	5621	0.027271950813	0.05
0	5626	0.027291315726	0.06
0	5642	0.027357230813	0.05
0	5647	0.0273767237	0.06
0	5653	0.027380144042	0.07
0	5669	0.027442510813	0.06
0	5674	0.027486044981	0.07
0	5690	0.027527790813	0.06
0	5705	0.027613070813	0.05
0	5720	0.027698350813	0.04
0	5735	0.027783630813	0.03
0	5740	0.027833298529	0.04
0	5756	0.027868910813	0.03
0	5761	0.02793888349	0.04
0	5777	0.027954190813	0.03
0	5782	0.027977596499	0.04
0	5788	0.028034057549	0.05
0	5804	0.028039470813	0.04
0	5809	0.028059065698	0.05
0	5825	0.028124750813	0.04
0	5840	0.028210030813	0.03
0	5845	0.028285929097	0.04
0	5861	0.028295310813	0.03
0	5866	0.02830115846	0.04
0	5872	0.028346975748	0.05
0	5878	0.028357207809	0.06
0	5894	0.028380590813	0.05
0	5899	0.028414453964	0.06
0	5915	0.028465870813	0.05
0	5930	0.028551150813	0.04
0	5945	0.028636430813	0.03
0	5960	0.028721710813	0.02
0	5975	0.028806990813	0.01
0	5980	0.02882823494	0.02
0	5996	0.028892270813	0.01
0	6011	0.028977550813	0
0	6016	0.029050726406	0.01
0	6032	0.029062830813	0
0	6037	0.029080882997	0.01
0	6053	0.029148110813	0
0	6073	0.029244972755	0.01
0	6074	0.029244972755	0
0	6087	0.029321980441	0.01
0	6095	0.029330252755	0
0	6115	0.029443682391	0.01
0	6116	0.029443682391	0
0	6129	0.029503089741	0.01
0	6135	0.029513651005	0.02
0	6141	0.029524139189	0.03
0	6149	0.029528962391	0.02
0	6164	0.029614242391	0.01
0	6179	0.029699522391	0
0	6184	0.029776067402	0.01
0	6200	0.029784802391	0
0	6205	0.029819501968	0.01
0	6221	0.029870082391	0
0	6226	0.02994476272	0.01
0	6242	0.029955362391	0
0	6247	0.030008108982	0.01
0	6263	0.030040642391	0
0	6291	0.030684648034	0.01
0	6292	0.030684648034	0
0	6312	0.030868621313	0.01
0	6313	0.030868621313	0
0	6318	0.030884808322	0.01
0	6326	0.030953901313	0
0	6346	0.031119826051	0.01
0	6347	0.031119826051	0
0	6375	0.031322416933	0.01
0	6376	0.031322416933	0
0	6381	0.031326245224	0.01
0	6387	0.031343977782	0.02
0	6395	0.031407696933	0.01
0	6400	0.031414969575	0.02
0	6416	0.031492976933	0.01
0	6421	0.031510566217	0.02
0	6427	0.031528820077	0.03
0	6433	0.031542038448	0.04
0	6449	0.031578256933	0.03
0	6464	0.031663536933	0.02
0	6469	0.031693020794	0.03
0	6485	0.031748816933	0.02
0	6500	0.031834096933	0.01
0	6505	0.031881413683	0.02
0	6521	0.031919376933	0.01
0	6536	0.032004656933	0
0	6541	0.032081612333	0.01
0	6557	0.032089936933	0
0	6577	0.032246284243	0.01
0	6578	0.032246284243	0
0	6591	0.032299284531	0.01
0	6599	0.032331564243	0
0	6604	0.032383472627	0.01
0	6610	0.032398551728	0.02
0	6626	0.032416844243	0.01
0	6631	0.032450838731	0.02
0	6637	0.03245421741	0.03
0	6643	0.032461384948	0.04
0	6659	0.032502124243	0.03
0	6674	0.032587404243	0.02
0	6689	0.032672684243	0.01
0	6704	0.032757964243	0
0	6724	0.032866369632	0.01
0	6725	0.032866369632	0
0	6745	0.032985913489	0.01
0	6746	0.032985913489	0
0	6751	0.033032640746	0.01
0	6767	0.033071193489	0
0	6772	0.033093070653	0.01
0	6778	0.033147556366	0.02
0	6794	0.033156473489	0.01
0	6809	0.033241753489	0
0	6814	0.033275589786	0.01
0	6820	0.033280781041	0.02
0	6836	0.033327033489	0.01
0	6851	0.033412313489	0
0	6856	0.033482058315	0.01
0	6872	0.033497593489	0
0	6877	0.033527549499	0.01
0	6893	0.033582873489	0
0	6921	0.033898545558	0.01
0	6922	0.033898545558	0
0	6927	0.033900222335	0.01
0	6935	0.033983825558	0
0	6955	0.034093880059	0.01
0	6956	0.034093880059	0
0	6961	0.03412011299	0.01
0	6967	0.034121291313	0.02
0	6983	0.034179160059	0.01
0	6998	0.034264440059	0
0	7003	0.034266070721	0.01
0	7009	0.034310696003	0.02
0	7025	0.034349720059	0.01
0	7040	0.034435000059	0
0	7060	0.034599157178	0.01
0	7061	0.034599157178	0
0	7081	0.034730087014	0.01
0	7082	0.034730087014	0
0	7102	0.034868716149	0.01
0	7103	0.034868716149	0
0	7108	0.034887545647	0.01
0	7122	0.034929006901	0.02
0	7130	0.034953996149	0.01
0	7135	0.035002620011	0.02
0	7151	0.035039276149	0.01
0	7156	0.035069866063	0.02
0	7162	0.035075453068	0.03
0	7168	0.03511685096	0.04
0	7184	0.035124556149	0.03
0	7189	0.035139164881	0.04
0	7195	0.035158947832	0.05
0	7201	0.035160817379	0.06
0	7207	0.035179569274	0.07
0	7223	0.035209836149	0.06
0	7238	0.035295116149	0.05
0	7243	0.035337410546	0.06
0	7259	0.035380396149	0.05
0	7264	0.03539967028	0.06
0	7270	0.035425020851	0.07
0	7286	0.035465676149	0.06
0	7301	0.035550956149	0.05
0	7306	0.035632623957	0.06
0	7322	0.035636236149	0.05
0	7327	0.035674989667	0.06
0	7343	0.035721516149	0.05
0	7358	0.035806796149	0.04
0	7373	0.035892076149	0.03
0	7378	0.035963444096	0.04
0	7394	0.035977356149	0.03
0	7409	0.036062636149	0.02
0	7424	0.036147916149	0.01
0	7429	0.036226665982	0.02
0	7445	0.036233196149	0.01
0	7460	0.036318476149	0
0	7465	0.036320379854	0.01
0	7481	0.036403756149	0
0	7486	0.036442259534	0.01
0	7502	0.036489036149	0
0	7507	0.036533055937	0.01
0	7513	0.036536291617	0.02
0	7529	0.036574316149	0.01
0	7544	0.036659596149	0
0	7549	0.03668937474	0.01
0	7555	0.036707370474	0.02
0	7571	0.036744876149	0.01
0	7576	0.036776690451	0.02
0	7592	0.036830156149	0.01
0	7597	0.036873838667	0.02
0	7603	0.036879006958	0.03
0	7619	0.036915436149	0.02
0	7624	0.036965099322	0.03
0	7640	0.037000716149	0.02
0	7658	0.037085196413	0.03
0	7661	0.037085996149	0.02
0	7666	0.03711236322	0.03
0	7682	0.037171276149	0.02
0	7697	0.037256556149	0.01
0	7712	0.037341836149	0
0	7740	0.037600276509	0.01
0	7741	0.037600276509	0
0	7761	0.037872411335	0.01
0	7762	0.037872411335	0
0	7767	0.037903508115	0.01
0	7775	0.037957691335	0
0	7780	0.037998691086	0.01
0	7796	0.038042971335	0
0	7801	0.038112350736	0.01
0	7817	0.038128251335	0
0	7822	0.038189058701	0.01
0	7838	0.038213531335	0
0	7866	0.038388775898	0.01
0	7867	0.038388775898	0
0	7879	0.038477913756	0.01
0	7880	0.038477913756	0
0	7900	0.038616881462	0.01
0	7901	0.038616881462	0
0	7921	0.038747859999	0.01
0	7922	0.038747859999	0
0	7950	0.039081653432	0.01
0	7951	0.039081653432	0
0	7956	0.039119042082	0.01
0	7964	0.039166933432	0
0	7969	0.039199840087	0.01
0	7981	0.039250626599	0.02
0	7991	0.039252213432	0.01
0	7996	0.039274501886	0.02
0	8002	0.039298054343	0.03
0	8008	0.039323214204	0.04
0	8024	0.039337493432	0.03
0	8029	0.039343817409	0.04
0	8035	0.039368503336	0.05
0	8051	0.039422773432	0.04
0	8066	0.039508053432	0.03
0	8081	0.039593333432	0.02
0	8086	0.039657410895	0.03
0	8102	0.039678613432	0.02
0	8107	0.039741708773	0.03
0	8123	0.039763893432	0.02
0	8138	0.039849173432	0.01
0	8143	0.039876243516	0.02
0	8159	0.039934453432	0.01
0	8164	0.039936411415	0.02
0	8170	0.040003835872	0.03
0	8186	0.040019733432	0.02
0	8201	0.040105013432	0.01
0	8216	0.040190293432	0
0	8236	0.04035528374	0.01
0	8237	0.04035528374	0
0	8250	0.040381085016	0.01
0	8258	0.04044056374	0
0	8263	0.040495198806	0.01
0	8275	0.040524549571	0.02
0	8285	0.04052584374	0.01
0	8290	0.040533465	0.02
0	8296	0.040539443096	0.03
0	8302	0.040545250332	0.04
0	8308	0.040602240089	0.05
0	8324	0.04061112374	0.04
0	8329	0.040669151461	0.05
0	8345	0.04069640374	0.04
0	8350	0.04070651844	0.05
0	8366	0.04078168374	0.04
0	8381	0.04086696374	0.03
0	8386	0.040919385449	0.04
0	8402	0.04095224374	0.03
0	8417	0.04103752374	0.02
0	8422	0.041038571259	0.03
0	8438	0.04112280374	0.02
0	8453	0.04120808374	0.01
0	8468	0.04129336374	0
0	8488	0.04141324072	0.01
0	8489	0.04141324072	0
0	8494	0.041460682349	0.01
0	8510	0.04149852072	0
0	8515	0.041556826306	0.01
0	8521	0.04157662308	0.02
0	8537	0.04158380072	0.01
0	8542	0.041654820652	0.02
0	8548	0.041657319487	0.03
0	8564	0.04166908072	0.02
0	8579	0.04175436072	0.01
0	8594	0.04183964072	0
0	8599	0.041850155501	0.01
0	8605	0.041857117268	0.02
0	8621	0.04192492072	0.01
0	8626	0.04199331044	0.02
0	8642	0.04201020072	0.01
0	8657	0.04209548072	0
0	8662	0.042107064291	0.01
0	8668	0.042172187364	0.02
0	8684	0.04218076072	0.01
0	8689	0.042232645486	0.02
0	8705	0.04226604072	0.01
0	8710	0.042345681041	0.02
0	8726	0.04235132072	0.01
0	8731	0.042422593021	0.02
0	8747	0.04243660072	0.01
0	8752	0.042515999054	0.02
0	8768	0.04252188072	0.01
0	8783	0.04260716072	0
0	8803	0.042742983056	0.01
0	8804	0.042742983056	0
0	8824	0.042868403383	0.01
0	8825	0.042868403383	0
0	8853	0.043332368636	0.01
0	8854	0.043332368636	0
0	8859	0.043395761638	0.01
0	8867	0.043417648636	0
0	8872	0.04342021074	0.01
0	8878	0.043481094031	0.02
0	8894	0.043502928636	0.01
0	8909	0.043588208636	0
0	8914	0.043589884474	0.01
0	8930	0.043673488636	0
0	8950	0.043826776291	0.01
0	8951	0.043826776291	0
0	8964	0.043857336781	0.01
0	8970	0.043872096384	0.02
0	8976	0.043874183106	0.03
0	8982	0.043900218247	0.04
0	8990	0.043912056291	0.03
0	9005	0.043997336291	0.02
0	9010	0.044042256593	0.03
0	9026	0.044082616291	0.02
0	9041	0.044167896291	0.01
0	9056	0.044253176291	0
0	9061	0.044255612922	0.01
0	9067	0.044294181691	0.02
0	9083	0.044338456291	0.01
0	9098	0.044423736291	0
0	9118	0.044528966067	0.01
0	9119	0.044528966067	0
0	9124	0.044577329906	0.01
0	9140	0.044614246067	0
0	9145	0.044681114914	0.01
0	9161	0.044699526067	0
0	9166	0.044769865107	0.01
0	9182	0.044784806067	0
0	9187	0.04480912241	0.01
0	9203	0.044870086067	0
0	9223	0.044986936744	0.01
0	9224	0.044986936744	0
0	9237	0.045060273511	0.01
0	9245	0.045072216744	0
0	9265	0.04515942394	0.01
0	9266	0.04515942394	0
0	9271	0.045159429475	0.01
0	9287	0.04524470394	0
0	9307	0.045365511599	0.01
0	9308	0.045365511599	0
0	9313	0.045402887928	0.01
0	9327	0.045434845393	0.02
0	9335	0.045450791599	0.01
0	9340	0.045490262476	0.02
0	9356	0.045536071599	0.01
0	9371	0.045621351599	0
0	9376	0.04565023442	0.01
0	9392	0.045706631599	0
0	9412	0.045866810788	0.01
0	9413	0.045866810788	0
0	9426	0.045887345565	0.01
0	9434	0.045952090788	0
0	9439	0.04600125133	0.01
0	9455	0.046037370788	0
0	9483	0.046306569797	0.01
0	9484	0.046306569797	0
0	9489	0.046367474258	0.01
0	9497	0.046391849797	0
0	9517	0.046483785586	0.01
0	9518	0.046483785586	0
0	9523	0.046549835894	0.01
0	9539	0.046569065586	0
0	9544	0.046574107743	0.01
0	9560	0.046654345586	0
0	9565	0.046729574037	0.01
0	9581	0.046739625586	0
0	9609	0.047024022065	0.01
0	9610	0.047024022065	0
0	9615	0.047050086078	0.01
0	9623	0.047109302065	0
0	9628	0.047181336877	0.01
0	9644	0.047194582065	0
0	9672	0.047393611542	0.01
0	9673	0.047393611542	0
0	9678	0.047422906688	0.01
0	9684	0.047460549623	0.02
0	9692	0.047478891542	0.01
0	9697	0.047484541975	0.02
0	9713	0.047564171542	0.01
0	9728	0.047649451542	0
0	9748	0.047800251529	0.01
0	9749	0.047800251529	0
0	9762	0.047873274296	0.01
0	9770	0.047885531529	0
0	9775	0.047937093157	0.01
0	9781	0.047939692932	0.02
0	9797	0.047970811529	0.01
0	9812	0.048056091529	0
0	9817	0.04806402801	0.01
0	9823	0.048087280512	0.02
0	9829	0.048103967976	0.03
0	9845	0.048141371529	0.02
0	9850	0.048159251813	0.03
0	9866	0.048226651529	0.02
0	9871	0.04829034905	0.03
0	9887	0.048311931529	0.02
0	9892	0.048337216698	0.03
0	9908	0.048397211529	0.02
0	9913	0.048441137262	0.03
0	9929	0.048482491529	0.02
0	9934	0.048503420193	0.03
0	9940	0.048527612157	0.04
0	9946	0.048560133759	0.05
0	9962	0.048567771529	0.04
0	9967	0.048580769558	0.05
0	9983	0.048653051529	0.04
0	9988	0.048669148124	0.05
0	10004	0.048738331529	0.04
0	10019	0.048823611529	0.03
0	10024	0.048833955741	0.04
0	10040	0.048908891529	0.03
0	10055	0.048994171529	0.02
0	10060	0.049033359661	0.03
0	10076	0.049079451529	0.02
0	10091	0.049164731529	0.01
0	10096	0.049170827656	0.02
0	10102	0.049183330915	0.03
0	10118	0.049250011529	0.02
0	10123	0.049295676965	0.03
0	10139	0.049335291529	0.02
0	10144	0.049368529349	0.03
0	10150	0.04940094926	0.04
0	10156	0.049415113463	0.05
0	10172	0.049420571529	0.04
0	10177	0.049434339607	0.05
0	10193	0.049505851529	0.04
0	10198	0.049560520874	0.05
0	10214	0.049591131529	0.04
0	10229	0.049676411529	0.03
0	10234	0.049682420809	0.04
0	10240	0.049732848802	0.05
0	10256	0.049761691529	0.04
0	10261	0.049795052494	0.05
0	10277	0.049846971529	0.04
0	10282	0.049878390318	0.05
0	10298	0.049932251529	0.04
0	10313	0.050017531529	0.03
0	10318	0.050061916658	0.04
0	10324	0.050082162534	0.05
0	10340	0.050102811529	0.04
0	10345	0.050105086967	0.05
0	10351	0.050120734544	0.06
0	10357	0.050138761974	0.07
0	10373	0.050188091529	0.06
0	10378	0.050205716033	0.07
0	10384	0.050219050095	0.08
0	10390	0.050262995634	0.09
0	10406	0.050273371529	0.08
0	10421	0.050358651529	0.07
0	10426	0.050391038069	0.08
0	10442	0.050443931529	0.07
0	10457	0.050529211529	0.06
0	10472	0.050614491529	0.05
0	10477	0.050673101664	0.06
0	10483	0.050676194293	0.07
0	10499	0.050699771529	0.06
0	10514	0.050785051529	0.05
0	10519	0.050821149771	0.06
0	10535	0.050870331529	0.05
0	10550	0.050955611529	0.04
0	10555	0.050958584072	0.05
0	10571	0.051040891529	0.04
0	10576	0.051096680382	0.05
0	10582	0.05110639715	0.06
0	10598	0.051126171529	0.05
0	10613	0.051211451529	0.04
0	10628	0.051296731529	0.03
0	10633	0.051340446346	0.04
0	10639	0.051364966155	0.05
0	10645	0.051373677013	0.06
0	10661	0.051382011529	0.05
0	10676	0.051467291529	0.04
0	10681	0.05151200866	0.05
0	10697	0.051552571529	0.04
0	10702	0.051592347836	0.05
0	10718	0.051637851529	0.04
0	10733	0.051723131529	0.03
0	10738	0.051723910462	0.04
0	10754	0.051808411529	0.03
0	10759	0.05181173197	0.04
0	10765	0.051816400744	0.05
0	10781	0.051893691529	0.04
0	10796	0.051978971529	0.03
0	10811	0.052064251529	0.02
0	10816	0.052143250384	0.03
0	10832	0.052149531529	0.02
0	10837	0.052166715969	0.03
0	10843	0.052201267927	0.04
0	10859	0.052234811529	0.03
0	10864	0.052235083398	0.04
0	10870	0.052262636192	0.05
0	10886	0.052320091529	0.04
0	10891	0.05237572804	0.05
0	10897	0.052386296757	0.06
0	10903	0.052392808043	0.07
0	10909	0.052394464652	0.08
0	10925	0.052405371529	0.07
0	10930	0.052475578754	0.08
0	10946	0.052490651529	0.07
0	10961	0.052575931529	0.06
0	10976	0.052661211529	0.05
0	10981	0.052740834606	0.06
0	10987	0.052741762908	0.07