version 3
run General-0-20241216-14:50:47-22084
attr configname General
attr datetime 20241216-14:50:47
attr datetimef 20241216-145047
attr experiment General
attr inifile D:/jobSimQt/project/Parameters.ini
attr iterationvars ""
attr iterationvarsd ""
attr iterationvarsf ""
attr measurement ""
attr network TargetNetwork
attr processid 22084
attr repetition 0
attr replication #0
attr resultdir results
attr runnumber 0
attr seedset 0
config network TargetNetwork
config sim-time-limit 1.5s
config **.statistic-recording false
config *.*.ethernet.typename EthernetLayer
config *.*.eth[*].typename LayeredEthernetInterface
config *.*.eth[*].bitrate 100Mbps
config **.eth[*].queue.typename DropTailQueue
config **.eth[*].queue.packetCapacity 20
config **.forwarding false
config **.arp.retryTimeout 1s
config **.arp.retryCount 3
config **.arp.cacheTimeout 100s
config **.tcp.tcpAlgorithmClass "\"TcpReno\""
config **.tcp.typename Tcp
config **.tcp.advertisedWindow 65535
config **.tcp.delayedAcksEnabled false
config **.tcp.nagleEnabled true
config **.tcp.limitedTransmitEnabled false
config **.tcp.increasedIWEnabled false
config **.tcp.sackSupport false
config **.tcp.windowScalingSupport false
config **.tcp.timestampSupport false
config **.tcp.mss 1452
config *.configurator.config "xml(\"<config>\\n\" + \"<interface hosts='udp_tcp' address='192.168.0.1' netmask='255.255.255.x'/>\\n\" + \"<interface hosts='udp_tcp2' address='192.168.0.2' netmask='255.255.255.x'/>\\n\" + \"</config>\")"
config *.udp_tcp.numApps 1
config *.udp_tcp.app[0].typename TcpClientApp
config *.udp_tcp.app[0].io.connectAddress "\"udp_tcp2\""
config *.udp_tcp.app[0].io.connectPort 1000
config *.udp_tcp.app[0].source.packetLength 1000B
config *.udp_tcp.app[0].source.productionInterval 1ms
config *.udp_tcp.app[0].source.periodX [50ms,100ms,100ms,100ms,10ms]
config *.udp_tcp.app[0].source.activeX [10ms,50ms,60ms,40ms,10ms]
config *.udp_tcp2.numApps 1
config *.udp_tcp2.app[0].typename TcpSinkApp
config *.udp_tcp2.app[0].localPort 1000
config *.udp_tcp2.app[0].flowName "\"default\""
config *.switch.eth[*].bitrate 100Mbps
config *.switch.eth[0].bitrate 100Mbps
config *.switch.eth[1].bitrate 100Mbps

vector 0 TargetNetwork.udp_tcp.eth[0].macLayer.queue 615.udp_tcp.eth[0].macLayer.queue ETV
vector 1 TargetNetwork.switch.eth[1].macLayer.queue 615.switch.eth[1].macLayer.queue ETV
vector 2 TargetNetwork.udp_tcp2.eth[0].macLayer.queue 615.udp_tcp2.eth[0].macLayer.queue ETV
vector 3 TargetNetwork.switch.eth[0].macLayer.queue 615.switch.eth[0].macLayer.queue ETV
vector 4 TargetNetwork.udp_tcp2.tcp.conn-0 default.TcpReceiveQueue ETV
vector 5 TargetNetwork.udp_tcp2.app[0] default ETV
vector 6 TargetNetwork.udp_tcp2.app[0] default_loss ETV
0	10	0	0.01
0	11	0	0
0	41	0.00002304	0.01
0	42	0.00002304	0
0	82	0.001	0.01
0	83	0.001	0
0	118	0.002	0.01
0	119	0.002	0
0	154	0.003	0.01
0	155	0.003	0
0	190	0.004	0.01
0	191	0.004	0
0	226	0.005	0.01
0	227	0.005	0
0	262	0.006	0.01
0	263	0.006	0
0	298	0.007	0.01
0	299	0.007	0
0	334	0.008	0.01
0	335	0.008	0
0	370	0.009	0.01
0	371	0.009	0
0	407	0.05	0.01
0	408	0.05	0
0	443	0.051	0.01
0	444	0.051	0
0	479	0.052	0.01
0	480	0.052	0
0	515	0.053	0.01
0	516	0.053	0
0	551	0.054	0.01
0	552	0.054	0
0	587	0.055	0.01
0	588	0.055	0
0	623	0.056	0.01
0	624	0.056	0
0	659	0.057	0.01
0	660	0.057	0
0	695	0.058	0.01
0	696	0.058	0
0	731	0.059	0.01
0	732	0.059	0
0	767	0.06	0.01
0	768	0.06	0
0	803	0.061	0.01
0	804	0.061	0
0	839	0.062	0.01
0	840	0.062	0
0	875	0.063	0.01
0	876	0.063	0
0	911	0.064	0.01
0	912	0.064	0
0	947	0.065	0.01
0	948	0.065	0
0	983	0.066	0.01
0	984	0.066	0
0	1019	0.067	0.01
0	1020	0.067	0
0	1055	0.068	0.01
0	1056	0.068	0
0	1091	0.069	0.01
0	1092	0.069	0
0	1127	0.07	0.01
0	1128	0.07	0
0	1163	0.071	0.01
0	1164	0.071	0
0	1199	0.072	0.01
0	1200	0.072	0
0	1235	0.073	0.01
0	1236	0.073	0
0	1271	0.074	0.01
0	1272	0.074	0
0	1307	0.075	0.01
0	1308	0.075	0
0	1343	0.076	0.01
0	1344	0.076	0
0	1379	0.077	0.01
0	1380	0.077	0
0	1415	0.078	0.01
0	1416	0.078	0
0	1451	0.079	0.01
0	1452	0.079	0
0	1487	0.08	0.01
0	1488	0.08	0
0	1523	0.081	0.01
0	1524	0.081	0
0	1559	0.082	0.01
0	1560	0.082	0
0	1595	0.083	0.01
0	1596	0.083	0
0	1631	0.084	0.01
0	1632	0.084	0
0	1667	0.085	0.01
0	1668	0.085	0
0	1703	0.086	0.01
0	1704	0.086	0
0	1739	0.087	0.01
0	1740	0.087	0
0	1775	0.088	0.01
0	1776	0.088	0
0	1811	0.089	0.01
0	1812	0.089	0
0	1847	0.09	0.01
0	1848	0.09	0
0	1883	0.091	0.01
0	1884	0.091	0
0	1919	0.092	0.01
0	1920	0.092	0
0	1955	0.093	0.01
0	1956	0.093	0
0	1991	0.094	0.01
0	1992	0.094	0
0	2027	0.095	0.01
0	2028	0.095	0
0	2063	0.096	0.01
0	2064	0.096	0
0	2099	0.097	0.01
0	2100	0.097	0
0	2135	0.098	0.01
0	2136	0.098	0
0	2171	0.099	0.01
0	2172	0.099	0
0	2208	0.15	0.01
0	2209	0.15	0
0	2244	0.151	0.01
0	2245	0.151	0
0	2280	0.152	0.01
0	2281	0.152	0
0	2316	0.153	0.01
0	2317	0.153	0
0	2352	0.154	0.01
0	2353	0.154	0
0	2388	0.155	0.01
0	2389	0.155	0
0	2424	0.156	0.01
0	2425	0.156	0
0	2460	0.157	0.01
0	2461	0.157	0
0	2496	0.158	0.01
0	2497	0.158	0
0	2532	0.159	0.01
0	2533	0.159	0
0	2568	0.16	0.01
0	2569	0.16	0
0	2604	0.161	0.01
0	2605	0.161	0
0	2640	0.162	0.01
0	2641	0.162	0
0	2676	0.163	0.01
0	2677	0.163	0
0	2712	0.164	0.01
0	2713	0.164	0
0	2748	0.165	0.01
0	2749	0.165	0
0	2784	0.166	0.01
0	2785	0.166	0
0	2820	0.167	0.01
0	2821	0.167	0
0	2856	0.168	0.01
0	2857	0.168	0
0	2892	0.169	0.01
0	2893	0.169	0
0	2928	0.17	0.01
0	2929	0.17	0
0	2964	0.171	0.01
0	2965	0.171	0
0	3000	0.172	0.01
0	3001	0.172	0
0	3036	0.173	0.01
0	3037	0.173	0
0	3072	0.174	0.01
0	3073	0.174	0
0	3108	0.175	0.01
0	3109	0.175	0
0	3144	0.176	0.01
0	3145	0.176	0
0	3180	0.177	0.01
0	3181	0.177	0
0	3216	0.178	0.01
0	3217	0.178	0
0	3252	0.179	0.01
0	3253	0.179	0
0	3288	0.18	0.01
0	3289	0.18	0
0	3324	0.181	0.01
0	3325	0.181	0
0	3360	0.182	0.01
0	3361	0.182	0
0	3396	0.183	0.01
0	3397	0.183	0
0	3432	0.184	0.01
0	3433	0.184	0
0	3468	0.185	0.01
0	3469	0.185	0
0	3504	0.186	0.01
0	3505	0.186	0
0	3540	0.187	0.01
0	3541	0.187	0
0	3576	0.188	0.01
0	3577	0.188	0
0	3612	0.189	0.01
0	3613	0.189	0
0	3648	0.19	0.01
0	3649	0.19	0
0	3684	0.191	0.01
0	3685	0.191	0
0	3720	0.192	0.01
0	3721	0.192	0
0	3756	0.193	0.01
0	3757	0.193	0
0	3792	0.194	0.01
0	3793	0.194	0
0	3828	0.195	0.01
0	3829	0.195	0
0	3864	0.196	0.01
0	3865	0.196	0
0	3900	0.197	0.01
0	3901	0.197	0
0	3936	0.198	0.01
0	3937	0.198	0
0	3972	0.199	0.01
0	3973	0.199	0
0	4008	0.2	0.01
0	4009	0.2	0
0	4044	0.201	0.01
0	4045	0.201	0
0	4080	0.202	0.01
0	4081	0.202	0
0	4116	0.203	0.01
0	4117	0.203	0
0	4152	0.204	0.01
0	4153	0.204	0
0	4188	0.205	0.01
0	4189	0.205	0
0	4224	0.206	0.01
0	4225	0.206	0
0	4260	0.207	0.01
0	4261	0.207	0
0	4296	0.208	0.01
0	4297	0.208	0
0	4332	0.209	0.01
0	4333	0.209	0
0	4369	0.25	0.01
0	4370	0.25	0
0	4405	0.251	0.01
0	4406	0.251	0
0	4441	0.252	0.01
0	4442	0.252	0
0	4477	0.253	0.01
0	4478	0.253	0
0	4513	0.254	0.01
0	4514	0.254	0
0	4549	0.255	0.01
0	4550	0.255	0
0	4585	0.256	0.01
0	4586	0.256	0
0	4621	0.257	0.01
0	4622	0.257	0
0	4657	0.258	0.01
0	4658	0.258	0
0	4693	0.259	0.01
0	4694	0.259	0
0	4729	0.26	0.01
0	4730	0.26	0
0	4765	0.261	0.01
0	4766	0.261	0
0	4801	0.262	0.01
0	4802	0.262	0
0	4837	0.263	0.01
0	4838	0.263	0
0	4873	0.264	0.01
0	4874	0.264	0
0	4909	0.265	0.01
0	4910	0.265	0
0	4945	0.266	0.01
0	4946	0.266	0
0	4981	0.267	0.01
0	4982	0.267	0
0	5017	0.268	0.01
0	5018	0.268	0
0	5053	0.269	0.01
0	5054	0.269	0
0	5089	0.27	0.01
0	5090	0.27	0
0	5125	0.271	0.01
0	5126	0.271	0
0	5161	0.272	0.01
0	5162	0.272	0
0	5197	0.273	0.01
0	5198	0.273	0
0	5233	0.274	0.01
0	5234	0.274	0
0	5269	0.275	0.01
0	5270	0.275	0
0	5305	0.276	0.01
0	5306	0.276	0
0	5341	0.277	0.01
0	5342	0.277	0
0	5377	0.278	0.01
0	5378	0.278	0
0	5413	0.279	0.01
0	5414	0.279	0
0	5449	0.28	0.01
0	5450	0.28	0
0	5485	0.281	0.01
0	5486	0.281	0
0	5521	0.282	0.01
0	5522	0.282	0
0	5557	0.283	0.01
0	5558	0.283	0
0	5593	0.284	0.01
0	5594	0.284	0
0	5629	0.285	0.01
0	5630	0.285	0
0	5665	0.286	0.01
0	5666	0.286	0
0	5701	0.287	0.01
0	5702	0.287	0
0	5737	0.288	0.01
0	5738	0.288	0
0	5773	0.289	0.01
0	5774	0.289	0
0	5810	0.35	0.01
0	5811	0.35	0
0	5846	0.351	0.01
0	5847	0.351	0
0	5882	0.352	0.01
0	5883	0.352	0
0	5918	0.353	0.01
0	5919	0.353	0
0	5954	0.354	0.01
0	5955	0.354	0
0	5990	0.355	0.01
0	5991	0.355	0
0	6026	0.356	0.01
0	6027	0.356	0
0	6062	0.357	0.01
0	6063	0.357	0
0	6098	0.358	0.01
0	6099	0.358	0
0	6134	0.359	0.01
0	6135	0.359	0
1	15	0.00000576	0.01
1	16	0.00000576	0
1	48	0.00010832	0.01
1	49	0.00010832	0
1	87	0.00108528	0.01
1	88	0.00108528	0
1	123	0.00208528	0.01
1	124	0.00208528	0
1	159	0.00308528	0.01
1	160	0.00308528	0
1	195	0.00408528	0.01
1	196	0.00408528	0
1	231	0.00508528	0.01
1	232	0.00508528	0
1	267	0.00608528	0.01
1	268	0.00608528	0
1	303	0.00708528	0.01
1	304	0.00708528	0
1	339	0.00808528	0.01
1	340	0.00808528	0
1	375	0.00908528	0.01
1	376	0.00908528	0
1	412	0.05008528	0.01
1	413	0.05008528	0
1	448	0.05108528	0.01
1	449	0.05108528	0
1	484	0.05208528	0.01
1	485	0.05208528	0
1	520	0.05308528	0.01
1	521	0.05308528	0
1	556	0.05408528	0.01
1	557	0.05408528	0
1	592	0.05508528	0.01
1	593	0.05508528	0
1	628	0.05608528	0.01
1	629	0.05608528	0
1	664	0.05708528	0.01
1	665	0.05708528	0
1	700	0.05808528	0.01
1	701	0.05808528	0
1	736	0.05908528	0.01
1	737	0.05908528	0
1	772	0.06008528	0.01
1	773	0.06008528	0
1	808	0.06108528	0.01
1	809	0.06108528	0
1	844	0.06208528	0.01
1	845	0.06208528	0
1	880	0.06308528	0.01
1	881	0.06308528	0
1	916	0.06408528	0.01
1	917	0.06408528	0
1	952	0.06508528	0.01
1	953	0.06508528	0
1	988	0.06608528	0.01
1	989	0.06608528	0
1	1024	0.06708528	0.01
1	1025	0.06708528	0
1	1060	0.06808528	0.01
1	1061	0.06808528	0
1	1096	0.06908528	0.01
1	1097	0.06908528	0
1	1132	0.07008528	0.01
1	1133	0.07008528	0
1	1168	0.07108528	0.01
1	1169	0.07108528	0
1	1204	0.07208528	0.01
1	1205	0.07208528	0
1	1240	0.07308528	0.01
1	1241	0.07308528	0
1	1276	0.07408528	0.01
1	1277	0.07408528	0
1	1312	0.07508528	0.01
1	1313	0.07508528	0
1	1348	0.07608528	0.01
1	1349	0.07608528	0
1	1384	0.07708528	0.01
1	1385	0.07708528	0
1	1420	0.07808528	0.01
1	1421	0.07808528	0
1	1456	0.07908528	0.01
1	1457	0.07908528	0
1	1492	0.08008528	0.01
1	1493	0.08008528	0
1	1528	0.08108528	0.01
1	1529	0.08108528	0
1	1564	0.08208528	0.01
1	1565	0.08208528	0
1	1600	0.08308528	0.01
1	1601	0.08308528	0
1	1636	0.08408528	0.01
1	1637	0.08408528	0
1	1672	0.08508528	0.01
1	1673	0.08508528	0
1	1708	0.08608528	0.01
1	1709	0.08608528	0
1	1744	0.08708528	0.01
1	1745	0.08708528	0
1	1780	0.08808528	0.01
1	1781	0.08808528	0
1	1816	0.08908528	0.01
1	1817	0.08908528	0
1	1852	0.09008528	0.01
1	1853	0.09008528	0
1	1888	0.09108528	0.01
1	1889	0.09108528	0
1	1924	0.09208528	0.01
1	1925	0.09208528	0
1	1960	0.09308528	0.01
1	1961	0.09308528	0
1	1996	0.09408528	0.01
1	1997	0.09408528	0
1	2032	0.09508528	0.01
1	2033	0.09508528	0
1	2068	0.09608528	0.01
1	2069	0.09608528	0
1	2104	0.09708528	0.01
1	2105	0.09708528	0
1	2140	0.09808528	0.01
1	2141	0.09808528	0
1	2176	0.09908528	0.01
1	2177	0.09908528	0
1	2213	0.15008528	0.01
1	2214	0.15008528	0
1	2249	0.15108528	0.01
1	2250	0.15108528	0
1	2285	0.15208528	0.01
1	2286	0.15208528	0
1	2321	0.15308528	0.01
1	2322	0.15308528	0
1	2357	0.15408528	0.01
1	2358	0.15408528	0
1	2393	0.15508528	0.01
1	2394	0.15508528	0
1	2429	0.15608528	0.01
1	2430	0.15608528	0
1	2465	0.15708528	0.01
1	2466	0.15708528	0
1	2501	0.15808528	0.01
1	2502	0.15808528	0
1	2537	0.15908528	0.01
1	2538	0.15908528	0
1	2573	0.16008528	0.01
1	2574	0.16008528	0
1	2609	0.16108528	0.01
1	2610	0.16108528	0
1	2645	0.16208528	0.01
1	2646	0.16208528	0
1	2681	0.16308528	0.01
1	2682	0.16308528	0
1	2717	0.16408528	0.01
1	2718	0.16408528	0
1	2753	0.16508528	0.01
1	2754	0.16508528	0
1	2789	0.16608528	0.01
1	2790	0.16608528	0
1	2825	0.16708528	0.01
1	2826	0.16708528	0
1	2861	0.16808528	0.01
1	2862	0.16808528	0
1	2897	0.16908528	0.01
1	2898	0.16908528	0
1	2933	0.17008528	0.01
1	2934	0.17008528	0
1	2969	0.17108528	0.01
1	2970	0.17108528	0
1	3005	0.17208528	0.01
1	3006	0.17208528	0
1	3041	0.17308528	0.01
1	3042	0.17308528	0
1	3077	0.17408528	0.01
1	3078	0.17408528	0
1	3113	0.17508528	0.01
1	3114	0.17508528	0
1	3149	0.17608528	0.01
1	3150	0.17608528	0
1	3185	0.17708528	0.01
1	3186	0.17708528	0
1	3221	0.17808528	0.01
1	3222	0.17808528	0
1	3257	0.17908528	0.01
1	3258	0.17908528	0
1	3293	0.18008528	0.01
1	3294	0.18008528	0
1	3329	0.18108528	0.01
1	3330	0.18108528	0
1	3365	0.18208528	0.01
1	3366	0.18208528	0
1	3401	0.18308528	0.01
1	3402	0.18308528	0
1	3437	0.18408528	0.01
1	3438	0.18408528	0
1	3473	0.18508528	0.01
1	3474	0.18508528	0
1	3509	0.18608528	0.01
1	3510	0.18608528	0
1	3545	0.18708528	0.01
1	3546	0.18708528	0
1	3581	0.18808528	0.01
1	3582	0.18808528	0
1	3617	0.18908528	0.01
1	3618	0.18908528	0
1	3653	0.19008528	0.01
1	3654	0.19008528	0
1	3689	0.19108528	0.01
1	3690	0.19108528	0
1	3725	0.19208528	0.01
1	3726	0.19208528	0
1	3761	0.19308528	0.01
1	3762	0.19308528	0
1	3797	0.19408528	0.01
1	3798	0.19408528	0
1	3833	0.19508528	0.01
1	3834	0.19508528	0
1	3869	0.19608528	0.01
1	3870	0.19608528	0
1	3905	0.19708528	0.01
1	3906	0.19708528	0
1	3941	0.19808528	0.01
1	3942	0.19808528	0
1	3977	0.19908528	0.01
1	3978	0.19908528	0
1	4013	0.20008528	0.01
1	4014	0.20008528	0
1	4049	0.20108528	0.01
1	4050	0.20108528	0
1	4085	0.20208528	0.01
1	4086	0.20208528	0
1	4121	0.20308528	0.01
1	4122	0.20308528	0
1	4157	0.20408528	0.01
1	4158	0.20408528	0
1	4193	0.20508528	0.01
1	4194	0.20508528	0
1	4229	0.20608528	0.01
1	4230	0.20608528	0
1	4265	0.20708528	0.01
1	4266	0.20708528	0
1	4301	0.20808528	0.01
1	4302	0.20808528	0
1	4337	0.20908528	0.01
1	4338	0.20908528	0
1	4374	0.25008528	0.01
1	4375	0.25008528	0
1	4410	0.25108528	0.01
1	4411	0.25108528	0
1	4446	0.25208528	0.01
1	4447	0.25208528	0
1	4482	0.25308528	0.01
1	4483	0.25308528	0
1	4518	0.25408528	0.01
1	4519	0.25408528	0
1	4554	0.25508528	0.01
1	4555	0.25508528	0
1	4590	0.25608528	0.01
1	4591	0.25608528	0
1	4626	0.25708528	0.01
1	4627	0.25708528	0
1	4662	0.25808528	0.01
1	4663	0.25808528	0
1	4698	0.25908528	0.01
1	4699	0.25908528	0
1	4734	0.26008528	0.01
1	4735	0.26008528	0
1	4770	0.26108528	0.01
1	4771	0.26108528	0
1	4806	0.26208528	0.01
1	4807	0.26208528	0
1	4842	0.26308528	0.01
1	4843	0.26308528	0
1	4878	0.26408528	0.01
1	4879	0.26408528	0
1	4914	0.26508528	0.01
1	4915	0.26508528	0
1	4950	0.26608528	0.01
1	4951	0.26608528	0
1	4986	0.26708528	0.01
1	4987	0.26708528	0
1	5022	0.26808528	0.01
1	5023	0.26808528	0
1	5058	0.26908528	0.01
1	5059	0.26908528	0
1	5094	0.27008528	0.01
1	5095	0.27008528	0
1	5130	0.27108528	0.01
1	5131	0.27108528	0
1	5166	0.27208528	0.01
1	5167	0.27208528	0
1	5202	0.27308528	0.01
1	5203	0.27308528	0
1	5238	0.27408528	0.01
1	5239	0.27408528	0
1	5274	0.27508528	0.01
1	5275	0.27508528	0
1	5310	0.27608528	0.01
1	5311	0.27608528	0
1	5346	0.27708528	0.01
1	5347	0.27708528	0
1	5382	0.27808528	0.01
1	5383	0.27808528	0
1	5418	0.27908528	0.01
1	5419	0.27908528	0
1	5454	0.28008528	0.01
1	5455	0.28008528	0
1	5490	0.28108528	0.01
1	5491	0.28108528	0
1	5526	0.28208528	0.01
1	5527	0.28208528	0
1	5562	0.28308528	0.01
1	5563	0.28308528	0
1	5598	0.28408528	0.01
1	5599	0.28408528	0
1	5634	0.28508528	0.01
1	5635	0.28508528	0
1	5670	0.28608528	0.01
1	5671	0.28608528	0
1	5706	0.28708528	0.01
1	5707	0.28708528	0
1	5742	0.28808528	0.01
1	5743	0.28808528	0
1	5778	0.28908528	0.01
1	5779	0.28908528	0
1	5815	0.35008528	0.01
1	5816	0.35008528	0
1	5851	0.35108528	0.01
1	5852	0.35108528	0
1	5887	0.35208528	0.01
1	5888	0.35208528	0
1	5923	0.35308528	0.01
1	5924	0.35308528	0
1	5959	0.35408528	0.01
1	5960	0.35408528	0
1	5995	0.35508528	0.01
1	5996	0.35508528	0
1	6031	0.35608528	0.01
1	6032	0.35608528	0
1	6067	0.35708528	0.01
1	6068	0.35708528	0
1	6103	0.35808528	0.01
1	6104	0.35808528	0
1	6139	0.35908528	0.01
1	6140	0.35908528	0
2	24	0.00001152	0.01
2	25	0.00001152	0
2	59	0.0001936	0.01
2	62	0.0001936	0
2	97	0.00117056	0.01
2	98	0.00117056	0
2	133	0.00217056	0.01
2	134	0.00217056	0
2	169	0.00317056	0.01
2	170	0.00317056	0
2	205	0.00417056	0.01
2	206	0.00417056	0
2	241	0.00517056	0.01
2	242	0.00517056	0
2	277	0.00617056	0.01
2	278	0.00617056	0
2	313	0.00717056	0.01
2	314	0.00717056	0
2	349	0.00817056	0.01
2	350	0.00817056	0
2	385	0.00917056	0.01
2	386	0.00917056	0
2	422	0.05017056	0.01
2	423	0.05017056	0
2	458	0.05117056	0.01
2	459	0.05117056	0
2	494	0.05217056	0.01
2	495	0.05217056	0
2	530	0.05317056	0.01
2	531	0.05317056	0
2	566	0.05417056	0.01
2	567	0.05417056	0
2	602	0.05517056	0.01
2	603	0.05517056	0
2	638	0.05617056	0.01
2	639	0.05617056	0
2	674	0.05717056	0.01
2	675	0.05717056	0
2	710	0.05817056	0.01
2	711	0.05817056	0
2	746	0.05917056	0.01
2	747	0.05917056	0
2	782	0.06017056	0.01
2	783	0.06017056	0
2	818	0.06117056	0.01
2	819	0.06117056	0
2	854	0.06217056	0.01
2	855	0.06217056	0
2	890	0.06317056	0.01
2	891	0.06317056	0
2	926	0.06417056	0.01
2	927	0.06417056	0
2	962	0.06517056	0.01
2	963	0.06517056	0
2	998	0.06617056	0.01
2	999	0.06617056	0
2	1034	0.06717056	0.01
2	1035	0.06717056	0
2	1070	0.06817056	0.01
2	1071	0.06817056	0
2	1106	0.06917056	0.01
2	1107	0.06917056	0
2	1142	0.07017056	0.01
2	1143	0.07017056	0
2	1178	0.07117056	0.01
2	1179	0.07117056	0
2	1214	0.07217056	0.01
2	1215	0.07217056	0
2	1250	0.07317056	0.01
2	1251	0.07317056	0
2	1286	0.07417056	0.01
2	1287	0.07417056	0
2	1322	0.07517056	0.01
2	1323	0.07517056	0
2	1358	0.07617056	0.01
2	1359	0.07617056	0
2	1394	0.07717056	0.01
2	1395	0.07717056	0
2	1430	0.07817056	0.01
2	1431	0.07817056	0
2	1466	0.07917056	0.01
2	1467	0.07917056	0
2	1502	0.08017056	0.01
2	1503	0.08017056	0
2	1538	0.08117056	0.01
2	1539	0.08117056	0
2	1574	0.08217056	0.01
2	1575	0.08217056	0
2	1610	0.08317056	0.01
2	1611	0.08317056	0
2	1646	0.08417056	0.01
2	1647	0.08417056	0
2	1682	0.08517056	0.01
2	1683	0.08517056	0
2	1718	0.08617056	0.01
2	1719	0.08617056	0
2	1754	0.08717056	0.01
2	1755	0.08717056	0
2	1790	0.08817056	0.01
2	1791	0.08817056	0
2	1826	0.08917056	0.01
2	1827	0.08917056	0
2	1862	0.09017056	0.01
2	1863	0.09017056	0
2	1898	0.09117056	0.01
2	1899	0.09117056	0
2	1934	0.09217056	0.01
2	1935	0.09217056	0
2	1970	0.09317056	0.01
2	1971	0.09317056	0
2	2006	0.09417056	0.01
2	2007	0.09417056	0
2	2042	0.09517056	0.01
2	2043	0.09517056	0
2	2078	0.09617056	0.01
2	2079	0.09617056	0
2	2114	0.09717056	0.01
2	2115	0.09717056	0
2	2150	0.09817056	0.01
2	2151	0.09817056	0
2	2186	0.09917056	0.01
2	2187	0.09917056	0
2	2223	0.15017056	0.01
2	2224	0.15017056	0
2	2259	0.15117056	0.01
2	2260	0.15117056	0
2	2295	0.15217056	0.01
2	2296	0.15217056	0
2	2331	0.15317056	0.01
2	2332	0.15317056	0
2	2367	0.15417056	0.01
2	2368	0.15417056	0
2	2403	0.15517056	0.01
2	2404	0.15517056	0
2	2439	0.15617056	0.01
2	2440	0.15617056	0
2	2475	0.15717056	0.01
2	2476	0.15717056	0
2	2511	0.15817056	0.01
2	2512	0.15817056	0
2	2547	0.15917056	0.01
2	2548	0.15917056	0
2	2583	0.16017056	0.01
2	2584	0.16017056	0
2	2619	0.16117056	0.01
2	2620	0.16117056	0
2	2655	0.16217056	0.01
2	2656	0.16217056	0
2	2691	0.16317056	0.01
2	2692	0.16317056	0
2	2727	0.16417056	0.01
2	2728	0.16417056	0
2	2763	0.16517056	0.01
2	2764	0.16517056	0
2	2799	0.16617056	0.01
2	2800	0.16617056	0
2	2835	0.16717056	0.01
2	2836	0.16717056	0
2	2871	0.16817056	0.01
2	2872	0.16817056	0
2	2907	0.16917056	0.01
2	2908	0.16917056	0
2	2943	0.17017056	0.01
2	2944	0.17017056	0
2	2979	0.17117056	0.01
2	2980	0.17117056	0
2	3015	0.17217056	0.01
2	3016	0.17217056	0
2	3051	0.17317056	0.01
2	3052	0.17317056	0
2	3087	0.17417056	0.01
2	3088	0.17417056	0
2	3123	0.17517056	0.01
2	3124	0.17517056	0
2	3159	0.17617056	0.01
2	3160	0.17617056	0
2	3195	0.17717056	0.01
2	3196	0.17717056	0
2	3231	0.17817056	0.01
2	3232	0.17817056	0
2	3267	0.17917056	0.01
2	3268	0.17917056	0
2	3303	0.18017056	0.01
2	3304	0.18017056	0
2	3339	0.18117056	0.01
2	3340	0.18117056	0
2	3375	0.18217056	0.01
2	3376	0.18217056	0
2	3411	0.18317056	0.01
2	3412	0.18317056	0
2	3447	0.18417056	0.01
2	3448	0.18417056	0
2	3483	0.18517056	0.01
2	3484	0.18517056	0
2	3519	0.18617056	0.01
2	3520	0.18617056	0
2	3555	0.18717056	0.01
2	3556	0.18717056	0
2	3591	0.18817056	0.01
2	3592	0.18817056	0
2	3627	0.18917056	0.01
2	3628	0.18917056	0
2	3663	0.19017056	0.01
2	3664	0.19017056	0
2	3699	0.19117056	0.01
2	3700	0.19117056	0
2	3735	0.19217056	0.01
2	3736	0.19217056	0
2	3771	0.19317056	0.01
2	3772	0.19317056	0
2	3807	0.19417056	0.01
2	3808	0.19417056	0
2	3843	0.19517056	0.01
2	3844	0.19517056	0
2	3879	0.19617056	0.01
2	3880	0.19617056	0
2	3915	0.19717056	0.01
2	3916	0.19717056	0
2	3951	0.19817056	0.01
2	3952	0.19817056	0
2	3987	0.19917056	0.01
2	3988	0.19917056	0
2	4023	0.20017056	0.01
2	4024	0.20017056	0
2	4059	0.20117056	0.01
2	4060	0.20117056	0
2	4095	0.20217056	0.01
2	4096	0.20217056	0
2	4131	0.20317056	0.01
2	4132	0.20317056	0
2	4167	0.20417056	0.01
2	4168	0.20417056	0
2	4203	0.20517056	0.01
2	4204	0.20517056	0
2	4239	0.20617056	0.01
2	4240	0.20617056	0
2	4275	0.20717056	0.01
2	4276	0.20717056	0
2	4311	0.20817056	0.01
2	4312	0.20817056	0
2	4347	0.20917056	0.01
2	4348	0.20917056	0
2	4384	0.25017056	0.01
2	4385	0.25017056	0
2	4420	0.25117056	0.01
2	4421	0.25117056	0
2	4456	0.25217056	0.01
2	4457	0.25217056	0
2	4492	0.25317056	0.01
2	4493	0.25317056	0
2	4528	0.25417056	0.01
2	4529	0.25417056	0
2	4564	0.25517056	0.01
2	4565	0.25517056	0
2	4600	0.25617056	0.01
2	4601	0.25617056	0
2	4636	0.25717056	0.01
2	4637	0.25717056	0
2	4672	0.25817056	0.01
2	4673	0.25817056	0
2	4708	0.25917056	0.01
2	4709	0.25917056	0
2	4744	0.26017056	0.01
2	4745	0.26017056	0
2	4780	0.26117056	0.01
2	4781	0.26117056	0
2	4816	0.26217056	0.01
2	4817	0.26217056	0
2	4852	0.26317056	0.01
2	4853	0.26317056	0
2	4888	0.26417056	0.01
2	4889	0.26417056	0
2	4924	0.26517056	0.01
2	4925	0.26517056	0
2	4960	0.26617056	0.01
2	4961	0.26617056	0
2	4996	0.26717056	0.01
2	4997	0.26717056	0
2	5032	0.26817056	0.01
2	5033	0.26817056	0
2	5068	0.26917056	0.01
2	5069	0.26917056	0
2	5104	0.27017056	0.01
2	5105	0.27017056	0
2	5140	0.27117056	0.01
2	5141	0.27117056	0
2	5176	0.27217056	0.01
2	5177	0.27217056	0
2	5212	0.27317056	0.01
2	5213	0.27317056	0
2	5248	0.27417056	0.01
2	5249	0.27417056	0
2	5284	0.27517056	0.01
2	5285	0.27517056	0
2	5320	0.27617056	0.01
2	5321	0.27617056	0
2	5356	0.27717056	0.01
2	5357	0.27717056	0
2	5392	0.27817056	0.01
2	5393	0.27817056	0
2	5428	0.27917056	0.01
2	5429	0.27917056	0
2	5464	0.28017056	0.01
2	5465	0.28017056	0
2	5500	0.28117056	0.01
2	5501	0.28117056	0
2	5536	0.28217056	0.01
2	5537	0.28217056	0
2	5572	0.28317056	0.01
2	5573	0.28317056	0
2	5608	0.28417056	0.01
2	5609	0.28417056	0
2	5644	0.28517056	0.01
2	5645	0.28517056	0
2	5680	0.28617056	0.01
2	5681	0.28617056	0
2	5716	0.28717056	0.01
2	5717	0.28717056	0
2	5752	0.28817056	0.01
2	5753	0.28817056	0
2	5788	0.28917056	0.01
2	5789	0.28917056	0
2	5825	0.35017056	0.01
2	5826	0.35017056	0
2	5861	0.35117056	0.01
2	5862	0.35117056	0
2	5897	0.35217056	0.01
2	5898	0.35217056	0
2	5933	0.35317056	0.01
2	5934	0.35317056	0
2	5969	0.35417056	0.01
2	5970	0.35417056	0
2	6005	0.35517056	0.01
2	6006	0.35517056	0
2	6041	0.35617056	0.01
2	6042	0.35617056	0
2	6077	0.35717056	0.01
2	6078	0.35717056	0
2	6113	0.35817056	0.01
2	6114	0.35817056	0
2	6149	0.35917056	0.01
2	6150	0.35917056	0
3	31	0.00001728	0.01
3	32	0.00001728	0
3	68	0.00019936	0.01
3	69	0.00019936	0
3	104	0.00117632	0.01
3	105	0.00117632	0
3	140	0.00217632	0.01
3	141	0.00217632	0
3	176	0.00317632	0.01
3	177	0.00317632	0
3	212	0.00417632	0.01
3	213	0.00417632	0
3	248	0.00517632	0.01
3	249	0.00517632	0
3	284	0.00617632	0.01
3	285	0.00617632	0
3	320	0.00717632	0.01
3	321	0.00717632	0
3	356	0.00817632	0.01
3	357	0.00817632	0
3	392	0.00917632	0.01
3	393	0.00917632	0
3	429	0.05017632	0.01
3	430	0.05017632	0
3	465	0.05117632	0.01
3	466	0.05117632	0
3	501	0.05217632	0.01
3	502	0.05217632	0
3	537	0.05317632	0.01
3	538	0.05317632	0
3	573	0.05417632	0.01
3	574	0.05417632	0
3	609	0.05517632	0.01
3	610	0.05517632	0
3	645	0.05617632	0.01
3	646	0.05617632	0
3	681	0.05717632	0.01
3	682	0.05717632	0
3	717	0.05817632	0.01
3	718	0.05817632	0
3	753	0.05917632	0.01
3	754	0.05917632	0
3	789	0.06017632	0.01
3	790	0.06017632	0
3	825	0.06117632	0.01
3	826	0.06117632	0
3	861	0.06217632	0.01
3	862	0.06217632	0
3	897	0.06317632	0.01
3	898	0.06317632	0
3	933	0.06417632	0.01
3	934	0.06417632	0
3	969	0.06517632	0.01
3	970	0.06517632	0
3	1005	0.06617632	0.01
3	1006	0.06617632	0
3	1041	0.06717632	0.01
3	1042	0.06717632	0
3	1077	0.06817632	0.01
3	1078	0.06817632	0
3	1113	0.06917632	0.01
3	1114	0.06917632	0
3	1149	0.07017632	0.01
3	1150	0.07017632	0
3	1185	0.07117632	0.01
3	1186	0.07117632	0
3	1221	0.07217632	0.01
3	1222	0.07217632	0
3	1257	0.07317632	0.01
3	1258	0.07317632	0
3	1293	0.07417632	0.01
3	1294	0.07417632	0
3	1329	0.07517632	0.01
3	1330	0.07517632	0
3	1365	0.07617632	0.01
3	1366	0.07617632	0
3	1401	0.07717632	0.01
3	1402	0.07717632	0
3	1437	0.07817632	0.01
3	1438	0.07817632	0
3	1473	0.07917632	0.01
3	1474	0.07917632	0
3	1509	0.08017632	0.01
3	1510	0.08017632	0
3	1545	0.08117632	0.01
3	1546	0.08117632	0
3	1581	0.08217632	0.01
3	1582	0.08217632	0
3	1617	0.08317632	0.01
3	1618	0.08317632	0
3	1653	0.08417632	0.01
3	1654	0.08417632	0
3	1689	0.08517632	0.01
3	1690	0.08517632	0
3	1725	0.08617632	0.01
3	1726	0.08617632	0
3	1761	0.08717632	0.01
3	1762	0.08717632	0
3	1797	0.08817632	0.01
3	1798	0.08817632	0
3	1833	0.08917632	0.01
3	1834	0.08917632	0
3	1869	0.09017632	0.01
3	1870	0.09017632	0
3	1905	0.09117632	0.01
3	1906	0.09117632	0
3	1941	0.09217632	0.01
3	1942	0.09217632	0
3	1977	0.09317632	0.01
3	1978	0.09317632	0
3	2013	0.09417632	0.01
3	2014	0.09417632	0
3	2049	0.09517632	0.01
3	2050	0.09517632	0
3	2085	0.09617632	0.01
3	2086	0.09617632	0
3	2121	0.09717632	0.01
3	2122	0.09717632	0
3	2157	0.09817632	0.01
3	2158	0.09817632	0
3	2193	0.09917632	0.01
3	2194	0.09917632	0
3	2230	0.15017632	0.01
3	2231	0.15017632	0
3	2266	0.15117632	0.01
3	2267	0.15117632	0
3	2302	0.15217632	0.01
3	2303	0.15217632	0
3	2338	0.15317632	0.01
3	2339	0.15317632	0
3	2374	0.15417632	0.01
3	2375	0.15417632	0
3	2410	0.15517632	0.01
3	2411	0.15517632	0
3	2446	0.15617632	0.01
3	2447	0.15617632	0
3	2482	0.15717632	0.01
3	2483	0.15717632	0
3	2518	0.15817632	0.01
3	2519	0.15817632	0
3	2554	0.15917632	0.01
3	2555	0.15917632	0
3	2590	0.16017632	0.01
3	2591	0.16017632	0
3	2626	0.16117632	0.01
3	2627	0.16117632	0
3	2662	0.16217632	0.01
3	2663	0.16217632	0
3	2698	0.16317632	0.01
3	2699	0.16317632	0
3	2734	0.16417632	0.01
3	2735	0.16417632	0
3	2770	0.16517632	0.01
3	2771	0.16517632	0
3	2806	0.16617632	0.01
3	2807	0.16617632	0
3	2842	0.16717632	0.01
3	2843	0.16717632	0
3	2878	0.16817632	0.01
3	2879	0.16817632	0
3	2914	0.16917632	0.01
3	2915	0.16917632	0
3	2950	0.17017632	0.01
3	2951	0.17017632	0
3	2986	0.17117632	0.01
3	2987	0.17117632	0
3	3022	0.17217632	0.01
3	3023	0.17217632	0
3	3058	0.17317632	0.01
3	3059	0.17317632	0
3	3094	0.17417632	0.01
3	3095	0.17417632	0
3	3130	0.17517632	0.01
3	3131	0.17517632	0
3	3166	0.17617632	0.01
3	3167	0.17617632	0
3	3202	0.17717632	0.01
3	3203	0.17717632	0
3	3238	0.17817632	0.01
3	3239	0.17817632	0
3	3274	0.17917632	0.01
3	3275	0.17917632	0
3	3310	0.18017632	0.01
3	3311	0.18017632	0
3	3346	0.18117632	0.01
3	3347	0.18117632	0
3	3382	0.18217632	0.01
3	3383	0.18217632	0
3	3418	0.18317632	0.01
3	3419	0.18317632	0
3	3454	0.18417632	0.01
3	3455	0.18417632	0
3	3490	0.18517632	0.01
3	3491	0.18517632	0
3	3526	0.18617632	0.01
3	3527	0.18617632	0
3	3562	0.18717632	0.01
3	3563	0.18717632	0
3	3598	0.18817632	0.01
3	3599	0.18817632	0
3	3634	0.18917632	0.01
3	3635	0.18917632	0
3	3670	0.19017632	0.01
3	3671	0.19017632	0
3	3706	0.19117632	0.01
3	3707	0.19117632	0
3	3742	0.19217632	0.01
3	3743	0.19217632	0
3	3778	0.19317632	0.01
3	3779	0.19317632	0
3	3814	0.19417632	0.01
3	3815	0.19417632	0
3	3850	0.19517632	0.01
3	3851	0.19517632	0
3	3886	0.19617632	0.01
3	3887	0.19617632	0
3	3922	0.19717632	0.01
3	3923	0.19717632	0
3	3958	0.19817632	0.01
3	3959	0.19817632	0
3	3994	0.19917632	0.01
3	3995	0.19917632	0
3	4030	0.20017632	0.01
3	4031	0.20017632	0
3	4066	0.20117632	0.01
3	4067	0.20117632	0
3	4102	0.20217632	0.01
3	4103	0.20217632	0
3	4138	0.20317632	0.01
3	4139	0.20317632	0
3	4174	0.20417632	0.01
3	4175	0.20417632	0
3	4210	0.20517632	0.01
3	4211	0.20517632	0
3	4246	0.20617632	0.01
3	4247	0.20617632	0
3	4282	0.20717632	0.01
3	4283	0.20717632	0
3	4318	0.20817632	0.01
3	4319	0.20817632	0
3	4354	0.20917632	0.01
3	4355	0.20917632	0
3	4391	0.25017632	0.01
3	4392	0.25017632	0
3	4427	0.25117632	0.01
3	4428	0.25117632	0
3	4463	0.25217632	0.01
3	4464	0.25217632	0
3	4499	0.25317632	0.01
3	4500	0.25317632	0
3	4535	0.25417632	0.01
3	4536	0.25417632	0
3	4571	0.25517632	0.01
3	4572	0.25517632	0
3	4607	0.25617632	0.01
3	4608	0.25617632	0
3	4643	0.25717632	0.01
3	4644	0.25717632	0
3	4679	0.25817632	0.01
3	4680	0.25817632	0
3	4715	0.25917632	0.01
3	4716	0.25917632	0
3	4751	0.26017632	0.01
3	4752	0.26017632	0
3	4787	0.26117632	0.01
3	4788	0.26117632	0
3	4823	0.26217632	0.01
3	4824	0.26217632	0
3	4859	0.26317632	0.01
3	4860	0.26317632	0
3	4895	0.26417632	0.01
3	4896	0.26417632	0
3	4931	0.26517632	0.01
3	4932	0.26517632	0
3	4967	0.26617632	0.01
3	4968	0.26617632	0
3	5003	0.26717632	0.01
3	5004	0.26717632	0
3	5039	0.26817632	0.01
3	5040	0.26817632	0
3	5075	0.26917632	0.01
3	5076	0.26917632	0
3	5111	0.27017632	0.01
3	5112	0.27017632	0
3	5147	0.27117632	0.01
3	5148	0.27117632	0
3	5183	0.27217632	0.01
3	5184	0.27217632	0
3	5219	0.27317632	0.01
3	5220	0.27317632	0
3	5255	0.27417632	0.01
3	5256	0.27417632	0
3	5291	0.27517632	0.01
3	5292	0.27517632	0
3	5327	0.27617632	0.01
3	5328	0.27617632	0
3	5363	0.27717632	0.01
3	5364	0.27717632	0
3	5399	0.27817632	0.01
3	5400	0.27817632	0
3	5435	0.27917632	0.01
3	5436	0.27917632	0
3	5471	0.28017632	0.01
3	5472	0.28017632	0
3	5507	0.28117632	0.01
3	5508	0.28117632	0
3	5543	0.28217632	0.01
3	5544	0.28217632	0
3	5579	0.28317632	0.01
3	5580	0.28317632	0
3	5615	0.28417632	0.01
3	5616	0.28417632	0
3	5651	0.28517632	0.01
3	5652	0.28517632	0
3	5687	0.28617632	0.01
3	5688	0.28617632	0
3	5723	0.28717632	0.01
3	5724	0.28717632	0
3	5759	0.28817632	0.01
3	5760	0.28817632	0
3	5795	0.28917632	0.01
3	5796	0.28917632	0
3	5832	0.35017632	0.01
3	5833	0.35017632	0
3	5868	0.35117632	0.01
3	5869	0.35117632	0
3	5904	0.35217632	0.01
3	5905	0.35217632	0
3	5940	0.35317632	0.01
3	5941	0.35317632	0
3	5976	0.35417632	0.01
3	5977	0.35417632	0
3	6012	0.35517632	0.01
3	6013	0.35517632	0
3	6048	0.35617632	0.01