version 3
run General-0-20241220-16:44:16-22324
attr configname General
attr datetime 20241220-16:44:16
attr datetimef 20241220-164416
attr experiment General
attr inifile D:/jobSimQt/project/Parameters.ini
attr iterationvars ""
attr iterationvarsd ""
attr iterationvarsf ""
attr measurement ""
attr network TargetNetwork
attr processid 22324
attr repetition 0
attr replication #0
attr resultdir results
attr runnumber 0
attr seedset 0
config network TargetNetwork
config sim-time-limit 1.5s
config **.statistic-recording false
config *.*.ethernet.typename EthernetLayer
config *.*.eth[*].typename LayeredEthernetInterface
config *.*.eth[*].bitrate 100Mbps
config **.eth[*].queue.typename DropTailQueue
config **.eth[*].queue.packetCapacity 20
config **.forwarding false
config **.arp.retryTimeout 1s
config **.arp.retryCount 3
config **.arp.cacheTimeout 100s
config **.tcp.tcpAlgorithmClass "\"TcpReno\""
config **.tcp.typename Tcp
config **.tcp.advertisedWindow 65535
config **.tcp.delayedAcksEnabled false
config **.tcp.nagleEnabled true
config **.tcp.limitedTransmitEnabled false
config **.tcp.increasedIWEnabled false
config **.tcp.sackSupport false
config **.tcp.windowScalingSupport false
config **.tcp.timestampSupport false
config **.tcp.mss 1452
config *.configurator.config "xml(\"<config>\\n\" + \"<interface hosts='udp_tcp' address='192.168.0.1' netmask='255.255.255.x'/>\\n\" + \"<interface hosts='udp_tcp2' address='192.168.0.2' netmask='255.255.255.x'/>\\n\" + \"</config>\")"
config *.udp_tcp.numApps 1
config *.udp_tcp.app[0].typename UdpApp615
config *.udp_tcp.app[0].source.packetLength 1000B
config *.udp_tcp.app[0].source.productionInterval exponential(100us)
config *.udp_tcp.app[0].io.destAddress "\"udp_tcp2\""
config *.udp_tcp.app[0].io.destPort 1000
config *.udp_tcp.app[0].sink.typename ""
config *.udp_tcp.app[0].source.periodX [50ms,100ms,100ms,100ms,10ms]
config *.udp_tcp.app[0].source.activeX [10ms,50ms,60ms,40ms,10ms]
config *.udp_tcp2.numApps 1
config *.udp_tcp2.app[0].typename UdpApp615
config *.udp_tcp2.app[0].source.typename ""
config *.udp_tcp2.app[0].io.destPort -1
config *.udp_tcp2.app[0].io.localPort 1000
config *.udp_tcp2.app[0].sink.flowName "\"default\""
config *.switch.eth[*].bitrate 100Mbps
config *.switch.eth[0].bitrate 100Mbps
config *.switch.eth[1].bitrate 100Mbps

vector 0 TargetNetwork.udp_tcp.eth[0].macLayer.queue 615.udp_tcp.eth[0].macLayer.queue ETV
vector 1 TargetNetwork.switch.eth[1].macLayer.queue 615.switch.eth[1].macLayer.queue ETV
vector 2 TargetNetwork.udp_tcp2.app[0].sink default ETV
vector 3 TargetNetwork.udp_tcp2.app[0].sink default_loss ETV
0	11	0	0.01
0	12	0	0
0	17	0.00007958745	0.01
0	25	0.00008528	0
0	46	0.000205180526	0.01
0	47	0.000205180526	0
0	67	0.000297502839	0.01
0	68	0.000297502839	0
0	81	0.000376222953	0.01
0	89	0.000382782839	0
0	94	0.000431327802	0.01
0	110	0.000468062839	0
0	115	0.000535143732	0.01
0	131	0.000553342839	0
0	136	0.000592695652	0.01
0	152	0.000638622839	0
0	169	0.000815048094	0.01
0	170	0.000815048094	0
0	190	0.001146539322	0.01
0	191	0.001146539322	0
0	196	0.001194899532	0.01
0	204	0.001231819322	0
0	224	0.001351789144	0.01
0	225	0.001351789144	0
0	238	0.001427056555	0.01
0	246	0.001437069144	0
0	251	0.00151099984	0.01
0	267	0.001522349144	0
0	295	0.001770825249	0.01
0	296	0.001770825249	0
0	301	0.001778193785	0.01
0	307	0.001787309888	0.02
0	315	0.001856105249	0.01
0	320	0.001891771139	0.02
0	326	0.001937695953	0.03
0	339	0.001941385249	0.02
0	346	0.002026665249	0.01
0	361	0.002111945249	0
0	366	0.002116444719	0.01
0	382	0.002197225249	0
0	402	0.002320476145	0.01
0	403	0.002320476145	0
0	431	0.002704998332	0.01
0	432	0.002704998332	0
0	444	0.002865522288	0.01
0	445	0.002865522288	0
0	458	0.002927415234	0.01
0	466	0.002950802288	0
0	486	0.003079068831	0.01
0	487	0.003079068831	0
0	492	0.003091656272	0.01
0	508	0.003164348831	0
0	513	0.003193799459	0.01
0	519	0.003209272427	0.02
0	535	0.003249628831	0.01
0	540	0.003286355893	0.02
0	556	0.003334908831	0.01
0	571	0.003420188831	0
0	576	0.003428492361	0.01
0	582	0.003482048933	0.02
0	598	0.003505468831	0.01
0	603	0.003546218403	0.02
0	609	0.003566838731	0.03
0	625	0.003590748831	0.02
0	640	0.003676028831	0.01
0	645	0.003715664214	0.02
0	651	0.003740069063	0.03
0	667	0.003761308831	0.02
0	672	0.003824102534	0.03
0	678	0.003825999391	0.04
0	694	0.003846588831	0.03
0	699	0.003865176472	0.04
0	705	0.003881390121	0.05
0	721	0.003931868831	0.04
0	726	0.003976089789	0.05
0	742	0.004017148831	0.04
0	747	0.004072044587	0.05
0	763	0.004102428831	0.04
0	778	0.004187708831	0.03
0	793	0.004272988831	0.02
0	808	0.004358268831	0.01
0	813	0.004359836089	0.02
0	829	0.004443548831	0.01
0	834	0.004454785547	0.02
0	850	0.004528828831	0.01
0	865	0.004614108831	0
0	870	0.004687420653	0.01
0	876	0.004693632182	0.02
0	889	0.004699388831	0.01
0	896	0.004784668831	0
0	924	0.00504365355	0.01
0	925	0.00504365355	0
0	937	0.005154713295	0.01
0	938	0.005154713295	0
0	943	0.005178333966	0.01
0	949	0.005192136835	0.02
0	965	0.005239993295	0.01
0	980	0.005325273295	0
0	985	0.005331041104	0.01
0	991	0.00537625131	0.02
0	1007	0.005410553295	0.01
0	1012	0.005415562566	0.02
0	1018	0.005419480882	0.03
0	1024	0.005477213313	0.04
0	1040	0.005495833295	0.03
0	1045	0.005577800414	0.04
0	1061	0.005581113295	0.03
0	1076	0.005666393295	0.02
0	1091	0.005751673295	0.01
0	1106	0.005836953295	0
0	1111	0.005897095078	0.01
0	1117	0.005914686433	0.02
0	1133	0.005922233295	0.01
0	1148	0.006007513295	0
0	1176	0.006450696468	0.01
0	1177	0.006450696468	0
0	1182	0.006479904521	0.01
0	1190	0.006535976468	0
0	1195	0.006542698679	0.01
0	1201	0.00657072638	0.02
0	1217	0.006621256468	0.01
0	1222	0.006668412787	0.02
0	1238	0.006706536468	0.01
0	1243	0.00670966291	0.02
0	1259	0.006791816468	0.01
0	1264	0.00682197974	0.02
0	1270	0.006860135324	0.03
0	1276	0.006875006551	0.04
0	1292	0.006877096468	0.03
0	1307	0.006962376468	0.02
0	1312	0.007025670084	0.03
0	1328	0.007047656468	0.02
0	1333	0.00707167148	0.03
0	1349	0.007132936468	0.02
0	1361	0.007218216468	0.01
0	1366	0.007243704646	0.02
0	1371	0.007303496468	0.01
0	1376	0.007341214839	0.02
0	1384	0.007388776468	0.01
0	1389	0.007453196276	0.02
0	1402	0.007474056468	0.01
0	1409	0.007559336468	0
0	1437	0.007810555113	0.01
0	1438	0.007810555113	0
0	1443	0.007873788773	0.01
0	1451	0.007895835113	0
0	1468	0.008249981501	0.01
0	1469	0.008249981501	0
0	1481	0.008342829351	0.01
0	1482	0.008342829351	0
0	1499	0.008477253878	0.01
0	1500	0.008477253878	0
0	1505	0.008481251508	0.01
0	1511	0.008514492532	0.02
0	1519	0.008562533878	0.01
0	1534	0.008647813878	0
0	1562	0.008903649544	0.01
0	1563	0.008903649544	0
0	1568	0.008938767153	0.01
0	1574	0.008951406017	0.02
0	1582	0.008988929544	0.01
0	1587	0.00906809337	0.02
0	1603	0.009074209544	0.01
0	1618	0.009159489544	0
0	1638	0.00928051709	0.01
0	1639	0.00928051709	0
0	1644	0.00928714683	0.01
0	1660	0.00936579709	0
0	1665	0.009405065783	0.01
0	1681	0.00945107709	0
0	1686	0.009488675536	0.01
0	1692	0.00951951702	0.02
0	1708	0.00953635709	0.01
0	1713	0.009590641814	0.02
0	1729	0.00962163709	0.01
0	1741	0.00970691709	0
0	1753	0.00983920005	0.01
0	1754	0.00983920005	0
0	1771	0.009924989614	0.01
0	1772	0.009924989614	0
0	1793	0.05	0.01
0	1794	0.05	0
0	1799	0.050038356021	0.01
0	1804	0.05008528	0
0	1809	0.050148440612	0.01
0	1815	0.050162573683	0.02
0	1823	0.05017056	0.01
0	1838	0.05025584	0
0	1843	0.050266751748	0.01
0	1849	0.050300917165	0.02
0	1855	0.050331668937	0.03
0	1871	0.05034112	0.02
0	1876	0.050351903981	0.03
0	1892	0.0504264	0.02
0	1897	0.050440216885	0.03
0	1903	0.050442248131	0.04
0	1909	0.050460273356	0.05
0	1925	0.05051168	0.04
0	1940	0.05059696	0.03
0	1945	0.050636847463	0.04
0	1951	0.050652681614	0.05
0	1964	0.05068224	0.04
0	1969	0.050765945028	0.05
0	1977	0.05076752	0.04
0	1982	0.050797417194	0.05
0	1998	0.0508528	0.04
0	2003	0.050930292981	0.05
0	2019	0.05093808	0.04
0	2034	0.05102336	0.03
0	2049	0.05110864	0.02
0	2064	0.05119392	0.01
0	2069	0.051257807299	0.02
0	2085	0.0512792	0.01
0	2090	0.05130824168	0.02
0	2106	0.05136448	0.01
0	2121	0.05144976	0
0	2139	0.051534615038	0.01
0	2142	0.05153504	0
0	2147	0.051559857037	0.01
0	2163	0.05162032	0
0	2191	0.051865085203	0.01
0	2192	0.051865085203	0
0	2197	0.051924347606	0.01
0	2205	0.051950365203	0
0	2225	0.052111693594	0.01
0	2226	0.052111693594	0
0	2246	0.052231917451	0.01
0	2247	0.052231917451	0
0	2252	0.052267219464	0.01
0	2268	0.052317197451	0
0	2288	0.052435311684	0.01
0	2289	0.052435311684	0
0	2294	0.052485813559	0.01
0	2310	0.052520591684	0
0	2338	0.052698763499	0.01
0	2339	0.052698763499	0
0	2351	0.052785817082	0.01
0	2352	0.052785817082	0
0	2380	0.052999300127	0.01
0	2381	0.052999300127	0
0	2393	0.05311723842	0.01
0	2394	0.05311723842	0
0	2414	0.053246429347	0.01
0	2415	0.053246429347	0
0	2428	0.053316009293	0.01
0	2436	0.053331709347	0
0	2464	0.053628556129	0.01
0	2465	0.053628556129	0
0	2477	0.05373183583	0.01
0	2478	0.05373183583	0
0	2483	0.053786975429	0.01
0	2499	0.05381711583	0
0	2504	0.053880215717	0.01
0	2510	0.053882153695	0.02
0	2526	0.05390239583	0.01
0	2531	0.053945666467	0.02
0	2547	0.05398767583	0.01
0	2558	0.054071570819	0.02
0	2568	0.05407295583	0.01
0	2573	0.054105537292	0.02
0	2579	0.054153900861	0.03
0	2595	0.05415823583	0.02
0	2610	0.05424351583	0.01
0	2615	0.054250138367	0.02
0	2631	0.05432879583	0.01
0	2646	0.05441407583	0
0	2651	0.054460883127	0.01
0	2657	0.05449630554	0.02
0	2673	0.05449935583	0.01
0	2678	0.054505997815	0.02
0	2684	0.054549700616	0.03
0	2700	0.05458463583	0.02
0	2705	0.054639073524	0.03
0	2721	0.05466991583	0.02
0	2726	0.054724481498	0.03
0	2739	0.05475519583	0.02
0	2744	0.054830382437	0.03
0	2752	0.05484047583	0.02
0	2767	0.05492575583	0.01
0	2772	0.054935967398	0.02
0	2778	0.054960975547	0.03
0	2794	0.05501103583	0.02
0	2809	0.05509631583	0.01
0	2824	0.05518159583	0
0	2829	0.055187838946	0.01
0	2835	0.055245085101	0.02
0	2848	0.05526687583	0.01
0	2855	0.05535215583	0
0	2883	0.055658866077	0.01
0	2884	0.055658866077	0
0	2896	0.055822955835	0.01
0	2897	0.055822955835	0
0	2917	0.055944657785	0.01
0	2918	0.055944657785	0
0	2923	0.055955219049	0.01
0	2936	0.056029937785	0
0	2956	0.056207147262	0.01
0	2957	0.056207147262	0
0	2969	0.056332408014	0.01
0	2970	0.056332408014	0
0	2998	0.057008947066	0.01
0	2999	0.057008947066	0
0	3004	0.057025134075	0.01
0	3012	0.057094227066	0
0	3029	0.057227724957	0.01
0	3030	0.057227724957	0
0	3035	0.057245457515	0.01
0	3043	0.057313004957	0
0	3048	0.057341054157	0.01
0	3054	0.057354272528	0.02
0	3070	0.057398284957	0.01
0	3085	0.057483564957	0
0	3090	0.057505254874	0.01
0	3106	0.057568844957	0
0	3126	0.057669926784	0.01
0	3127	0.057669926784	0
0	3140	0.05775411488	0.01
0	3148	0.057755206784	0
0	3153	0.057806401883	0.01
0	3159	0.057813569421	0.02
0	3172	0.057840486784	0.01
0	3179	0.057925766784	0
0	3207	0.058218554105	0.01
0	3208	0.058218554105	0
0	3213	0.058278984012	0.01
0	3221	0.058303834105	0
0	3238	0.058407017432	0.01
0	3239	0.058407017432	0
0	3259	0.058608294706	0.01
0	3260	0.058608294706	0
0	3269	0.058979290765	0.01
0	3270	0.058979290765	0
0	3290	0.059172948489	0.01
0	3291	0.059172948489	0
0	3296	0.059174126812	0.01
0	3302	0.059218752094	0.02
0	3310	0.059258228489	0.01
0	3325	0.059343508489	0
0	3345	0.059507213269	0.01
0	3346	0.059507213269	0
0	3359	0.059526042767	0.01
0	3367	0.059592493269	0
0	3372	0.059599655877	0.01
0	3378	0.059605242882	0.02
0	3384	0.059646640774	0.03
0	3390	0.059668954695	0.04
0	3406	0.059677773269	0.03
0	3411	0.059688737646	0.04
0	3417	0.059707489541	0.05
0	3430	0.059763053269	0.04
0	3437	0.059848333269	0.03
0	3442	0.059865330813	0.04
0	3458	0.059933613269	0.03
0	3473	0.060018893269	0.02
0	3478	0.060072933919	0.03
0	3494	0.060104173269	0.02
0	3509	0.060189453269	0.01
0	3524	0.060274733269	0
0	3529	0.060336155805	0.01
0	3535	0.060339391485	0.02
0	3551	0.060360013269	0.01
0	3566	0.060445293269	0
0	3571	0.060492474608	0.01
0	3587	0.060530573269	0
0	3592	0.060589622824	0.01
0	3605	0.060615853269	0
0	3610	0.060675715188	0.01
0	3618	0.060701133269	0
0	3623	0.060702881995	0.01
0	3639	0.060786413269	0
0	3667	0.060975016821	0.01
0	3668	0.060975016821	0
0	3680	0.061070199792	0.01
0	3681	0.061070199792	0
0	3694	0.061146907757	0.01
0	3702	0.061155479792	0
0	3707	0.061236045615	0.01
0	3723	0.061240759792	0
0	3743	0.061367024152	0.01
0	3744	0.061367024152	0
0	3749	0.061404412802	0.01
0	3765	0.061452304152	0
0	3770	0.061455199314	0.01
0	3776	0.061478751771	0.02
0	3782	0.061503911632	0.03
0	3788	0.061524514837	0.04
0	3804	0.061537584152	0.03
0	3809	0.061549200764	0.04
0	3825	0.061622864152	0.03
0	3830	0.061633498642	0.04
0	3836	0.061693666541	0.05
0	3852	0.061708144152	0.04
0	3857	0.061761090998	0.05
0	3863	0.061786892274	0.06
0	3879	0.061793424152	0.05
0	3894	0.061878704152	0.04
0	3899	0.061901006064	0.05
0	3905	0.06190698416	0.06
0	3911	0.061912791396	0.07
0	3924	0.061963984152	0.06
0	3929	0.061969781153	0.07
0	3935	0.062007148132	0.08
0	3943	0.062049264152	0.07
0	3958	0.062134544152	0.06
0	3973	0.062219824152	0.05
0	3978	0.062220015141	0.06
0	3994	0.062305104152	0.05
0	3999	0.062316159098	0.06
0	4015	0.062390384152	0.05
0	4020	0.06239435667	0.06
0	4033	0.062475664152	0.05
0	4037	0.062560944152	0.04
0	4042	0.062587192684	0.05
0	4050	0.062646224152	0.04
0	4055	0.062700946535	0.05
0	4071	0.062731504152	0.04
0	4076	0.062761404657	0.05
0	4092	0.062816784152	0.04
0	4097	0.062838316637	0.05
0	4113	0.062902064152	0.04
0	4128	0.062987344152	0.03
0	4133	0.063065300639	0.04
0	4149	0.063072624152	0.03
0	4154	0.063128693641	0.04
0	4170	0.063157904152	0.03
0	4175	0.063189576932	0.04
0	4191	0.063243184152	0.03
0	4206	0.063328464152	0.02
0	4221	0.063413744152	0.01
0	4226	0.063426468749	0.02
0	4232	0.06345250389	0.03
0	4245	0.063499024152	0.02
0	4252	0.063584304152	0.01
0	4257	0.063594542236	0.02
0	4273	0.063669584152	0.01
0	4288	0.063754864152	0
0	4293	0.063829326612	0.01
0	4309	0.063840144152	0
0	4314	0.063918076805	0.01
0	4330	0.063925424152	0
0	4358	0.064095891139	0.01
0	4359	0.064095891139	0
0	4368	0.064195041568	0.01
0	4369	0.064195041568	0
0	4389	0.064401123692	0.01
0	4390	0.064401123692	0
0	4395	0.064433081157	0.01
0	4403	0.064486403692	0
0	4423	0.064593053101	0.01
0	4424	0.064593053101	0
0	4429	0.064613587878	0.01
0	4445	0.064678333101	0
0	4473	0.064918906345	0.01
0	4474	0.064918906345	0
0	4486	0.065035217673	0.01
0	4487	0.065035217673	0
0	4492	0.065059489522	0.01
0	4508	0.065120497673	0
0	4536	0.06535393755	0.01
0	4537	0.06535393755	0
0	4549	0.065485188349	0.01
0	4550	0.065485188349	0
0	4555	0.065514483495	0.01
0	4569	0.065538475847	0.02
0	4577	0.065570468349	0.01
0	4592	0.065655748349	0
0	4620	0.065854185401	0.01
0	4621	0.065854185401	0
0	4626	0.065856785176	0.01
0	4632	0.065880037678	0.02
0	4638	0.065896725142	0.03
0	4646	0.065939465401	0.02
0	4651	0.065952008979	0.03
0	4657	0.065998876627	0.04
0	4673	0.066024745401	0.03
0	4678	0.066102797191	0.04
0	4694	0.066110025401	0.03
0	4699	0.066126989155	0.04
0	4705	0.066147624954	0.05
0	4721	0.066195305401	0.04
0	4726	0.06623600352	0.05
0	4742	0.066280585401	0.04
0	4757	0.066365865401	0.03
0	4762	0.06643540744	0.04
0	4778	0.066451145401	0.03
0	4793	0.066536425401	0.02
0	4798	0.06654775349	0.03
0	4804	0.066561917693	0.04
0	4810	0.066581143837	0.05
0	4826	0.066621705401	0.04
0	4841	0.066706985401	0.03
0	4846	0.066707325104	0.04
0	4852	0.066769528796	0.05
0	4868	0.066792265401	0.04
0	4873	0.06685286662	0.05
0	4879	0.066873112496	0.06
0	4895	0.066877545401	0.05
0	4900	0.066896036929	0.06
0	4906	0.066914064359	0.07
0	4922	0.066962825401	0.06
0	4927	0.066981018418	0.07
0	4933	0.067024963957	0.08
0	4949	0.067048105401	0.07
0	4964	0.067133385401	0.06
0	4969	0.067153006392	0.07
0	4982	0.067218665401	0.06
0	4987	0.06729796187	0.07
0	4995	0.067303945401	0.06
0	5007	0.067389225401	0.05
0	5012	0.06743605818	0.06
0	5018	0.067460577989	0.07
0	5024	0.067469288847	0.08
0	5032	0.067474505401	0.07
0	5047	0.067559785401	0.06
0	5052	0.067607620494	0.07
0	5068	0.067645065401	0.06
0	5073	0.067695442002	0.07
0	5086	0.067730345401	0.06
0	5093	0.067815625401	0.05
0	5108	0.067900905401	0.04
0	5123	0.067986185401	0.03
0	5128	0.068022291642	0.04
0	5144	0.068071465401	0.03
0	5149	0.06813538349	0.04
0	5155	0.068141894776	0.05
0	5161	0.068143551385	0.06
0	5177	0.068156745401	0.05
0	5182	0.068224665487	0.06
0	5188	0.068225593789	0.07
0	5204	0.068242025401	0.06
0	5219	0.068327305401	0.05
0	5224	0.068336434764	0.06
0	5240	0.068412585401	0.05
0	5255	0.068497865401	0.04
0	5270	0.068583145401	0.03
0	5285	0.068668425401	0.02
0	5296	0.068752031874	0.03
0	5306	0.068753705401	0.02
0	5311	0.068758641075	0.03
0	5317	0.06882512185	0.04
0	5333	0.068838985401	0.03
0	5338	0.068911978423	0.04
0	5354	0.068924265401	0.03
0	5369	0.069009545401	0.02
0	5374	0.069066879591	0.03
0	5390	0.069094825401	0.02
0	5395	0.069108152578	0.03
0	5411	0.069180105401	0.02
0	5426	0.069265385401	0.01
0	5441	0.069350665401	0
0	5452	0.069434044676	0.01
0	5462	0.069435945401	0
0	5490	0.069732264744	0.01
0	5491	0.069732264744	0
0	5511	0.070015928763	0.01
0	5512	0.070015928763	0
0	5524	0.070176474639	0.01
0	5525	0.070176474639	0
0	5545	0.070276021003	0.01
0	5546	0.070276021003	0
0	5574	0.070483397149	0.01
0	5575	0.070483397149	0
0	5580	0.070518072479	0.01
0	5588	0.070568677149	0
0	5608	0.070707082649	0.01
0	5609	0.070707082649	0
0	5629	0.070803283842	0.01
0	5630	0.070803283842	0
0	5635	0.070804616366	0.01
0	5641	0.070847269947	0.02
0	5657	0.070888563842	0.01
0	5672	0.070973843842	0
0	5677	0.071045544837	0.01
0	5693	0.071059123842	0
0	5721	0.071446339802	0.01
0	5722	0.071446339802	0
0	5727	0.071511419536	0.01
0	5735	0.071531619802	0
0	5740	0.071580213884	0.01
0	5753	0.071616899802	0
0	5758	0.071682232593	0.01
0	5766	0.071702179802	0
0	5771	0.071728211725	0.01
0	5777	0.071742934229	0.02
0	5793	0.071787459802	0.01
0	5798	0.071798834996	0.02
0	5804	0.071834194654	0.03
0	5810	0.071855247983	0.04
0	5826	0.071872739802	0.03
0	5831	0.071906519447	0.04
0	5837	0.071919377471	0.05
0	5843	0.071944778609	0.06
0	5859	0.071958019802	0.05
0	5871	0.072043299802	0.04
0	5878	0.072128579802	0.03
0	5893	0.072213859802	0.02
0	5908	0.072299139802	0.01
0	5913	0.072339541936	0.02
0	5919	0.072381641266	0.03
0	5935	0.072384419802	0.02
0	5950	0.072469699802	0.01
0	5965	0.072554979802	0
0	5985	0.072705637563	0.01
0	5986	0.072705637563	0
0	6006	0.072854380538	0.01
0	6007	0.072854380538	0
0	6020	0.072894898826	0.01
0	6026	0.072903356775	0.02
0	6037	0.072939286166	0.03
0	6040	0.072939660538	0.02
0	6045	0.072991582931	0.03
0	6051	0.073018009977	0.04
0	6067	0.073024940538	0.03
0	6082	0.073110220538	0.02
0	6097	0.073195500538	0.01
0	6102	0.073278667157	0.02
0	6115	0.073280780538	0.01
0	6122	0.073366060538	0
0	6139	0.073584153135	0.01
0	6140	0.073584153135	0
0	6145	0.07358530246	0.01
0	6153	0.073669433135	0
0	6158	0.073732522876	0.01
0	6164	0.073748416194	0.02
0	6180	0.073754713135	0.01
0	6192	0.073839993135	0
0	6204	0.07396285474	0.01
0	6205	0.07396285474	0
0	6210	0.073972242195	0.01
0	6226	0.07404813474	0
0	6231	0.074083730937	0.01
0	6237	0.074111883339	0.02
0	6253	0.07413341474	0.01
0	6258	0.074168472793	0.02
0	6274	0.07421869474	0.01
0	6289	0.07430397474	0
0	6294	0.074307959702	0.01
0	6310	0.07438925474	0
0	6330	0.074504965459	0.01
0	6331	0.074504965459	0
0	6348	0.074634810023	0.01
0	6349	0.074634810023	0
0	6354	0.074666326026	0.01
0	6360	0.074680422814	0.02
0	6368	0.074720090023	0.01
0	6373	0.074770055735	0.02
0	6386	0.074805370023	0.01
0	6391	0.074834773205	0.02
0	6399	0.074890650023	0.01
0	6404	0.074901703492	0.02
0	6410	0.074963047401	0.03
0	6426	0.074975930023	0.02
0	6431	0.075023953847	0.03
0	6447	0.075061210023	0.02
0	6452	0.075138927986	0.03
0	6468	0.075146490023	0.02
0	6483	0.075231770023	0.01
0	6488	0.075257877611	0.02
0	6494	0.075314694659	0.03
0	6510	0.075317050023	0.02
0	6515	0.075362486458	0.03
0	6521	0.075382472012	0.04
0	6537	0.075402330023	0.03
0	6542	0.075453672819	0.04
0	6548	0.075462706543	0.05
0	6554	0.075468559333	0.06
0	6570	0.075487610023	0.05
0	6585	0.075572890023	0.04
0	6590	0.075576452024	0.05
0	6606	0.075658170023	0.04
0	6611	0.075727273547	0.05
0	6627	0.075743450023	0.04
0	6642	0.075828730023	0.03
0	6647	0.075877514826	0.04
0	6653	0.075897161015	0.05
0	6669	0.075914010023	0.04
0	6674	0.07594397166	0.05
0	6687	0.075999290023	0.04
0	6692	0.076032547725	0.05
0	6698	0.07606440611	0.06
0	6703	0.076084570023	0.05
0	6710	0.076169850023	0.04
0	6725	0.076255130023	0.03
0	6730	0.076287014509	0.04
0	6746	0.076340410023	0.03
0	6761	0.076425690023	0.02
0	6766	0.076438060669	0.03
0	6772	0.076442624474	0.04
0	6788	0.076510970023	0.03
0	6793	0.076568213822	0.04
0	6809	0.076596250023	0.03
0	6814	0.076635708919	0.04
0	6827	0.076681530023	0.03
0	6832	0.076699102132	0.04
0	6840	0.076766810023	0.03
0	6855	0.076852090023	0.02
0	6860	0.076913412102	0.03
0	6876	0.076937370023	0.02
0	6881	0.076999578851	0.03
0	6897	0.077022650023	0.02
0	6912	0.077107930023	0.01
0	6927	0.077193210023	0
0	6947	0.077320059734	0.01
0	6948	0.077320059734	0
0	6953	0.077323660017	0.01
0	6967	0.077379942537	0.02
0	6975	0.077405339734	0.01
0	6980	0.077461232373	0.02
0	6986	0.077478651889	0.03
0	7002	0.077490619734	0.02
0	7007	0.077555477223	0.03
0	7023	0.077575899734	0.02
0	7038	0.077661179734	0.01
0	7043	0.077669856761	0.02
0	7059	0.077746459734	0.01
0	7064	0.077747340999	0.02
0	7070	0.077786746756	0.03
0	7086	0.077831739734	0.02
0	7091	0.077836615989	0.03
0	7107	0.077917019734	0.02
0	7122	0.078002299734	0.01
0	7137	0.078087579734	0
0	7142	0.078149898938	0.01
0	7158	0.078172859734	0
0	7186	0.078384222931	0.01
0	7187	0.078384222931	0
0	7192	0.078462706633	0.01
0	7197	0.078469502931	0
0	7202	0.078523754917	0.01
0	7210	0.078554782931	0
0	7227	0.078737497086	0.01
0	7228	0.078737497086	0
0	7233	0.078798857507	0.01
0	7241	0.078822777086	0
0	7261	0.078927653705	0.01
0	7262	0.078927653705	0
0	7267	0.078978573954	0.01
0	7280	0.079012933705	0
0	7300	0.079212960918	0.01
0	7301	0.079212960918	0
0	7313	0.079330087287	0.01
0	7314	0.079330087287	0
0	7334	0.079450358665	0.01
0	7335	0.079450358665	0
0	7340	0.07949006676	0.01
0	7356	0.079535638665	0
0	7373	0.079631445093	0.01
0	7374	0.079631445093	0
0	7386	0.079732522009	0.01
0	7387	0.079732522009	0
0	7392	0.079759968361	0.01
0	7398	0.079777467866	0.02
0	7404	0.07977844931	0.03
0	7420	0.079817802009	0.02
0	7435	0.079903082009	0.01
0	7440	0.079937604922	0.02
0	7446	0.079964114232	0.03
0	7462	0.079988362009	0.02
0	7467	0.080025388776	0.03
0	7483	0.080073642009	0.02
0	7488	0.080114788916	0.03
0	7504	0.080158922009	0.02
0	7519	0.080244202009	0.01
0	7524	0.080309786607	0.02
0	7530	0.080320041796	0.03
0	7546	0.080329482009	0.02
0	7561	0.080414762009	0.01
0	7576	0.080500042009	0
0	7596	0.080623436053	0.01
0	7597	0.080623436053	0
0	7625	0.080795342984	0.01
0	7626	0.080795342984	0
0	7646	0.081034860963	0.01
0	7647	0.081034860963	0
0	7656	0.081203884458	0.01
0	7657	0.081203884458	0
0	7662	0.081221250114	0.01
0	7667	0.081289164458	0
0	7672	0.081320378065	0.01
0	7678	0.08137120001	0.02
0	7686	0.081374444458	0.01
0	7698	0.081459724458	0
0	7718	0.081669377976	0.01
0	7719	0.081669377976	0
0	7724	0.081724548337	0.01
0	7735	0.081754481175	0.02
0	7738	0.081754657976	0.01
0	7753	0.081839937976	0
0	7758	0.081884564918	0.01
0	7764	0.081887952104	0.02
0	7783	0.081924622619	0.03
0	7786	0.081925217976	0.02
0	7801	0.082010497976	0.01
0	7816	0.082095777976	0
0	7836	0.082243998806	0.01
0	7837	0.082243998806	0
0	7850	0.082288114287	0.01
0	7856	0.082289760615	0.02
0	7864	0.082329278806	0.01
0	7869	0.082365657092	0.02
0	7885	0.082414558806	0.01
0	7900	0.082499838806	0
0	7905	0.082552321139	0.01
0	7921	0.082585118806	0
0	7949	0.082817239965	0.01
0	7950	0.082817239965	0
0	7955	0.08282773324	0.01
0	7963	0.082902519965	0
0	7980	0.0831183252	0.01
0	7981	0.0831183252	0
0	7990	0.083321954619	0.01
0	7991	0.083321954619	0
0	7996	0.083382497997	0.01
0	8001	0.083407234619	0
0	8006	0.083422054557	0.01
0	8012	0.083448548051	0.02
0	8018	0.08347562049	0.03
0	8023	0.083492514619	0.02
0	8028	0.083570932744	0.03
0	8034	0.083574296136	0.04
0	8042	0.083577794619	0.03
0	8047	0.083648188138	0.04
0	8060	0.083663074619	0.03
0	8065	0.083720152628	0.04
0	8073	0.083748354619	0.03
0	8078	0.083825086845	0.04
0	8091	0.083833634619	0.03
0	8096	0.083903742754	0.04
0	8102	0.083907043153	0.05
0	8110	0.083918914619	0.04
0	8115	0.083932038235	0.05
0	8121	0.083961232842	0.06
0	8137	0.084004194619	0.05
0	8152	0.084089474619	0.04
0	8157	0.084108675064	0.05
0	8163	0.084109885989	0.06
0	8179	0.084174754619	0.05
0	8184	0.084177421576	0.06
0	8200	0.084260034619	0.05
0	8215	0.084345314619	0.04
0	8230	0.084430594619	0.03
0	8245	0.084515874619	0.02
0	8250	0.084577177924	0.03
0	8266	0.084601154619	0.02
0	8278	0.084686434619	0.01
0	8285	0.084771714619	0
0	8313	0.085041205924	0.01
0	8314	0.085041205924	0
0	8319	0.0850589936	0.01
0	8327	0.085126485924	0
0	8332	0.085160815358	0.01
0	8348	0.085211765924	0
0	8353	0.085228209702	0.01
0	8369	0.085297045924	0
0	8397	0.085682992087	0.01
0	8398	0.085682992087	0
0	8403	0.085689745503	0.01
0	8411	0.085768272087	0
0	8416	0.08584263939	0.01
0	8432	0.085853552087	0
0	8437	0.085876663112	0.01
0	8443	0.085904293631	0.02
0	8456	0.085938832087	0.01
0	8461	0.08601935989	0.02
0	8469	0.086024112087	0.01
0	8474	0.086067281159	0.02
0	8490	0.086109392087	0.01
0	8495	0.08616777449	0.02
0	8511	0.086194672087	0.01
0	8526	0.086279952087	0
0	8546	0.086429338583	0.01
0	8547	0.086429338583	0
0	8560	0.086484518795	0.01
0	8568	0.086514618583	0
0	8573	0.086565416765	0.01
0	8592	0.086599251377	0.02
0	8595	0.086599898583	0.01
0	8610	0.086685178583	0
0	8630	0.086772163341	0.01
0	8631	0.086772163341	0
0	8636	0.086825753221	0.01
0	8652	0.086857443341	0
0	8657	0.086870467211	0.01
0	8673	0.086942723341	0
0	8693	0.08704687595	0.01
0	8694	0.08704687595	0
0	8722	0.087305858565	0.01
0	8723	0.087305858565	0
0	8728	0.087310568492	0.01
0	8734	0.087337046719	0.02
0	8742	0.087391138565	0.01
0	8747	0.087396663908	0.02
0	8763	0.087476418565	0.01
0	8778	0.087561698565	0
0	8798	0.087673578356	0.01
0	8799	0.087673578356	0
0	8827	0.088096879936	0.01
0	8828	0.088096879936	0
0	8848	0.088444165507	0.01
0	8849	0.088444165507	0
0	8869	0.088679498984	0.01
0	8870	0.088679498984	0
0	8875	0.088714675723	0.01
0	8883	0.088764778984	0
0	8911	0.089197647748	0.01
0	8912	0.089197647748	0
0	8917	0.089226338658	0.01
0	8923	0.089237533112	0.02
0	8931	0.089282927748	0.01
0	8936	0.089304771402	0.02
0	8952	0.089368207748	0.01
0	8967	0.089453487748	0
0	8972	0.08952689282	0.01
0	8988	0.089538767748	0
0	9008	0.089643936393	0.01
0	9009	0.089643936393	0
0	9014	0.08964994923	0.01
0	9030	0.089729216393	0
0	9035	0.089781145538	0.01
0	9051	0.089814496393	0
0	9079	0.089994615777	0.01
0	9080	0.089994615777	0
0	9085	0.090026421232	0.01
0	9091	0.090074072814	0.02
0	9099	0.090079895777	0.01
0	9104	0.090120952383	0.02
0	9110	0.090160168512	0.03
0	9126	0.090165175777	0.02
0	9141	0.090250455777	0.01
0	9146	0.09029831442	0.02
0	9162	0.090335735777	0.01
0	9177	0.090421015777	0
0	9182	0.090457050143	0.01
0	9198	0.090506295777	0
0	9203	0.090516705135	0.01
0	9209	0.090553013019	0.02
0	9225	0.090591575777	0.01
0	9240	0.090676855777	0
0	9260	0.090770135607	0.01
0	9261	0.090770135607	0
0	9266	0.090797282604	0.01
0	9282	0.090855415607	0
0	9287	0.090867076359	0.01
0	9303	0.090940695607	0
0	9331	0.091152818894	0.01
0	9332	0.091152818894	0
0	9344	0.091253330459	0.01
0	9345	0.091253330459	0
0	9373	0.091455288909	0.01
0	9374	0.091455288909	0
0	9394	0.091736980082	0.01
0	9395	0.091736980082	0
0	9404	0.091875915933	0.01
0	9405	0.091875915933	0
0	9417	0.091996171667	0.01
0	9418	0.091996171667	0
0	9446	0.092340266072	0.01
0	9447	0.092340266072	0
0	9467	0.092858779014	0.01
0	9468	0.092858779014	0
0	9473	0.092918894479	0.01
0	9479	0.092926245117	0.02
0	9487	0.092944059014	0.01
0	9492	0.093020855291	0.02
0	9508	0.093029339014	0.01
0	9523	0.093114619014	0
0	9528	0.093132301114	0.01
0	9534	0.093186341384	0.02
0	9550	0.093199899014	0.01
0	9565	0.093285179014	0
0	9570	0.093305439529	0.01
0	9586	0.093370459014	0
0	9591	0.093398103389	0.01
0	9597	0.093446360911	0.02
0	9613	0.093455739014	0.01
0	9628	0.093541019014	0
0	9645	0.093768892519	0.01
0	9646	0.093768892519	0
0	9655	0.094112454858	0.01
0	9656	0.094112454858	0
0	9661	0.094191615767	0.01
0	9669	0.094197734858	0
0	9674	0.094223749797	0.01
0	9690	0.094283014858	0
0	9695	0.094313455098	0.01
0	9711	0.094368294858	0
0	9739	0.094540526109	0.01
0	9740	0.094540526109	0
0	9745	0.094592737239	0.01
0	9753	0.094625806109	0
0	9758	0.094673050916	0.01
0	9764	0.094704748654	0.02
0	9780	0.094711086109	0.01
0	9785	0.094736632759	0.02
0	9801	0.094796366109	0.01
0	9816	0.094881646109	0
0	9833	0.095087539114	0.01
0	9834	0.095087539114	0
0	9839	0.095116096006	0.01
0	9847	0.095172819114	0
0	9852	0.095186590938	0.01
0	9858	0.095223752513	0.02
0	9870	0.095256294185	0.03
0	9880	0.095258099114	0.02
0	9885	0.095302980619	0.03
0	9901	0.095343379114	0.02
0	9906	0.095377418445	0.03
0	9919	0.095428659114	0.02
0	9926	0.095513939114	0.01
0	9931	0.095516286172	0.02
0	9937	0.095556265699	0.03
0	9953	0.095599219114	0.02
0	9968	0.095684499114	0.01
0	9983	0.095769779114	0
0	9988	0.095814177012	0.01
0	9994	0.095819168572	0.02
0	10010	0.095855059114	0.01
0	10025	0.095940339114	0
0	10045	0.096050921178	0.01
0	10046	0.096050921178	0
0	10059	0.0961100047	0.01
0	10065	0.096121056288	0.02
0	10073	0.096136201178	0.01
0	10078	0.096192892872	0.02
0	10094	0.096221481178	0.01
0	10099	0.096264356291	0.02
0	10115	0.096306761178	0.01
0	10120	0.096313267132	0.02
0	10126	0.096388788314	0.03
0	10142	0.096392041178	0.02
0	10157	0.096477321178	0.01
0	10162	0.096486176173	0.02
0	10178	0.096562601178	0.01
0	10193	0.096647881178	0
0	10198	0.096709540158	0.01
0	10214	0.096733161178	0
0	10219	0.096751349324	0.01
0	10235	0.096818441178	0
0	10240	0.096864125367	0.01
0	10256	0.096903721178	0
0	10284	0.097075516048	0.01
0	10285	0.097075516048	0
0	10290	0.097153971718	0.01
0	10298	0.097160796048	0
0	10303	0.09718719778	0.01
0	10309	0.097190267957	0.02
0	10325	0.097246076048	0.01
0	10330	0.097291069311	0.02
0	10336	0.097326685889	0.03
0	10342	0.097327477424	0.04
0	10358	0.097331356048	0.03
0	10363	0.097389136733	0.04
0	10369	0.097391620054	0.05